<?xml version="1.0"?>
<VTKFile type="UnstructuredGrid" version="1.0" byte_order="LittleEndian" header_type="UInt64">
  <UnstructuredGrid>
    <Piece NumberOfPoints="1089" NumberOfCells="2048">
      <PointData>
      </PointData>
      <CellData>
        <DataArray type="Int32" Name="MaterialIDs" format="ascii" RangeMin="0" RangeMax="0">
          0 0 0 0 0 0
          0 0 0 0 0 0
          0 0 0 0 0 0
          0 0 0 0 0 0
          0 0 0 0 0 0
          0 0 0 0 0 0
          0 0 0 0 0 0
          0 0 0 0 0 0
          0 0 0 0 0 0
          0 0 0 0 0 0
          0 0 0 0 0 0
          0 0 0 0 0 0
          0 0 0 0 0 0
          0 0 0 0 0 0
          0 0 0 0 0 0
          0 0 0 0 0 0
          0 0 0 0 0 0
          0 0 0 0 0 0
          0 0 0 0 0 0
          0 0 0 0 0 0
          0 0 0 0 0 0
          0 0 0 0 0 0
          0 0 0 0 0 0
          0 0 0 0 0 0
          0 0 0 0 0 0
          0 0 0 0 0 0
          0 0 0 0 0 0
          0 0 0 0 0 0
          0 0 0 0 0 0
          0 0 0 0 0 0
          0 0 0 0 0 0
          0 0 0 0 0 0
          0 0 0 0 0 0
          0 0 0 0 0 0
          0 0 0 0 0 0
          0 0 0 0 0 0
          0 0 0 0 0 0
          0 0 0 0 0 0
          0 0 0 0 0 0
          0 0 0 0 0 0
          0 0 0 0 0 0
          0 0 0 0 0 0
          0 0 0 0 0 0
          0 0 0 0 0 0
          0 0 0 0 0 0
          0 0 0 0 0 0
          0 0 0 0 0 0
          0 0 0 0 0 0
          0 0 0 0 0 0
          0 0 0 0 0 0
          0 0 0 0 0 0
          0 0 0 0 0 0
          0 0 0 0 0 0
          0 0 0 0 0 0
          0 0 0 0 0 0
          0 0 0 0 0 0
          0 0 0 0 0 0
          0 0 0 0 0 0
          0 0 0 0 0 0
          0 0 0 0 0 0
          0 0 0 0 0 0
          0 0 0 0 0 0
          0 0 0 0 0 0
          0 0 0 0 0 0
          0 0 0 0 0 0
          0 0 0 0 0 0
          0 0 0 0 0 0
          0 0 0 0 0 0
          0 0 0 0 0 0
          0 0 0 0 0 0
          0 0 0 0 0 0
          0 0 0 0 0 0
          0 0 0 0 0 0
          0 0 0 0 0 0
          0 0 0 0 0 0
          0 0 0 0 0 0
          0 0 0 0 0 0
          0 0 0 0 0 0
          0 0 0 0 0 0
          0 0 0 0 0 0
          0 0 0 0 0 0
          0 0 0 0 0 0
          0 0 0 0 0 0
          0 0 0 0 0 0
          0 0 0 0 0 0
          0 0 0 0 0 0
          0 0 0 0 0 0
          0 0 0 0 0 0
          0 0 0 0 0 0
          0 0 0 0 0 0
          0 0 0 0 0 0
          0 0 0 0 0 0
          0 0 0 0 0 0
          0 0 0 0 0 0
          0 0 0 0 0 0
          0 0 0 0 0 0
          0 0 0 0 0 0
          0 0 0 0 0 0
          0 0 0 0 0 0
          0 0 0 0 0 0
          0 0 0 0 0 0
          0 0 0 0 0 0
          0 0 0 0 0 0
          0 0 0 0 0 0
          0 0 0 0 0 0
          0 0 0 0 0 0
          0 0 0 0 0 0
          0 0 0 0 0 0
          0 0 0 0 0 0
          0 0 0 0 0 0
          0 0 0 0 0 0
          0 0 0 0 0 0
          0 0 0 0 0 0
          0 0 0 0 0 0
          0 0 0 0 0 0
          0 0 0 0 0 0
          0 0 0 0 0 0
          0 0 0 0 0 0
          0 0 0 0 0 0
          0 0 0 0 0 0
          0 0 0 0 0 0
          0 0 0 0 0 0
          0 0 0 0 0 0
          0 0 0 0 0 0
          0 0 0 0 0 0
          0 0 0 0 0 0
          0 0 0 0 0 0
          0 0 0 0 0 0
          0 0 0 0 0 0
          0 0 0 0 0 0
          0 0 0 0 0 0
          0 0 0 0 0 0
          0 0 0 0 0 0
          0 0 0 0 0 0
          0 0 0 0 0 0
          0 0 0 0 0 0
          0 0 0 0 0 0
          0 0 0 0 0 0
          0 0 0 0 0 0
          0 0 0 0 0 0
          0 0 0 0 0 0
          0 0 0 0 0 0
          0 0 0 0 0 0
          0 0 0 0 0 0
          0 0 0 0 0 0
          0 0 0 0 0 0
          0 0 0 0 0 0
          0 0 0 0 0 0
          0 0 0 0 0 0
          0 0 0 0 0 0
          0 0 0 0 0 0
          0 0 0 0 0 0
          0 0 0 0 0 0
          0 0 0 0 0 0
          0 0 0 0 0 0
          0 0 0 0 0 0
          0 0 0 0 0 0
          0 0 0 0 0 0
          0 0 0 0 0 0
          0 0 0 0 0 0
          0 0 0 0 0 0
          0 0 0 0 0 0
          0 0 0 0 0 0
          0 0 0 0 0 0
          0 0 0 0 0 0
          0 0 0 0 0 0
          0 0 0 0 0 0
          0 0 0 0 0 0
          0 0 0 0 0 0
          0 0 0 0 0 0
          0 0 0 0 0 0
          0 0 0 0 0 0
          0 0 0 0 0 0
          0 0 0 0 0 0
          0 0 0 0 0 0
          0 0 0 0 0 0
          0 0 0 0 0 0
          0 0 0 0 0 0
          0 0 0 0 0 0
          0 0 0 0 0 0
          0 0 0 0 0 0
          0 0 0 0 0 0
          0 0 0 0 0 0
          0 0 0 0 0 0
          0 0 0 0 0 0
          0 0 0 0 0 0
          0 0 0 0 0 0
          0 0 0 0 0 0
          0 0 0 0 0 0
          0 0 0 0 0 0
          0 0 0 0 0 0
          0 0 0 0 0 0
          0 0 0 0 0 0
          0 0 0 0 0 0
          0 0 0 0 0 0
          0 0 0 0 0 0
          0 0 0 0 0 0
          0 0 0 0 0 0
          0 0 0 0 0 0
          0 0 0 0 0 0
          0 0 0 0 0 0
          0 0 0 0 0 0
          0 0 0 0 0 0
          0 0 0 0 0 0
          0 0 0 0 0 0
          0 0 0 0 0 0
          0 0 0 0 0 0
          0 0 0 0 0 0
          0 0 0 0 0 0
          0 0 0 0 0 0
          0 0 0 0 0 0
          0 0 0 0 0 0
          0 0 0 0 0 0
          0 0 0 0 0 0
          0 0 0 0 0 0
          0 0 0 0 0 0
          0 0 0 0 0 0
          0 0 0 0 0 0
          0 0 0 0 0 0
          0 0 0 0 0 0
          0 0 0 0 0 0
          0 0 0 0 0 0
          0 0 0 0 0 0
          0 0 0 0 0 0
          0 0 0 0 0 0
          0 0 0 0 0 0
          0 0 0 0 0 0
          0 0 0 0 0 0
          0 0 0 0 0 0
          0 0 0 0 0 0
          0 0 0 0 0 0
          0 0 0 0 0 0
          0 0 0 0 0 0
          0 0 0 0 0 0
          0 0 0 0 0 0
          0 0 0 0 0 0
          0 0 0 0 0 0
          0 0 0 0 0 0
          0 0 0 0 0 0
          0 0 0 0 0 0
          0 0 0 0 0 0
          0 0 0 0 0 0
          0 0 0 0 0 0
          0 0 0 0 0 0
          0 0 0 0 0 0
          0 0 0 0 0 0
          0 0 0 0 0 0
          0 0 0 0 0 0
          0 0 0 0 0 0
          0 0 0 0 0 0
          0 0 0 0 0 0
          0 0 0 0 0 0
          0 0 0 0 0 0
          0 0 0 0 0 0
          0 0 0 0 0 0
          0 0 0 0 0 0
          0 0 0 0 0 0
          0 0 0 0 0 0
          0 0 0 0 0 0
          0 0 0 0 0 0
          0 0 0 0 0 0
          0 0 0 0 0 0
          0 0 0 0 0 0
          0 0 0 0 0 0
          0 0 0 0 0 0
          0 0 0 0 0 0
          0 0 0 0 0 0
          0 0 0 0 0 0
          0 0 0 0 0 0
          0 0 0 0 0 0
          0 0 0 0 0 0
          0 0 0 0 0 0
          0 0 0 0 0 0
          0 0 0 0 0 0
          0 0 0 0 0 0
          0 0 0 0 0 0
          0 0 0 0 0 0
          0 0 0 0 0 0
          0 0 0 0 0 0
          0 0 0 0 0 0
          0 0 0 0 0 0
          0 0 0 0 0 0
          0 0 0 0 0 0
          0 0 0 0 0 0
          0 0 0 0 0 0
          0 0 0 0 0 0
          0 0 0 0 0 0
          0 0 0 0 0 0
          0 0 0 0 0 0
          0 0 0 0 0 0
          0 0 0 0 0 0
          0 0 0 0 0 0
          0 0 0 0 0 0
          0 0 0 0 0 0
          0 0 0 0 0 0
          0 0 0 0 0 0
          0 0 0 0 0 0
          0 0 0 0 0 0
          0 0 0 0 0 0
          0 0 0 0 0 0
          0 0 0 0 0 0
          0 0 0 0 0 0
          0 0 0 0 0 0
          0 0 0 0 0 0
          0 0 0 0 0 0
          0 0 0 0 0 0
          0 0 0 0 0 0
          0 0 0 0 0 0
          0 0 0 0 0 0
          0 0 0 0 0 0
          0 0 0 0 0 0
          0 0 0 0 0 0
          0 0 0 0 0 0
          0 0 0 0 0 0
          0 0 0 0 0 0
          0 0 0 0 0 0
          0 0 0 0 0 0
          0 0 0 0 0 0
          0 0 0 0 0 0
          0 0 0 0 0 0
          0 0 0 0 0 0
          0 0 0 0 0 0
          0 0 0 0 0 0
          0 0 0 0 0 0
          0 0 0 0 0 0
          0 0 0 0 0 0
          0 0 0 0 0 0
          0 0 0 0 0 0
          0 0 0 0 0 0
          0 0 0 0 0 0
          0 0 0 0 0 0
          0 0 0 0 0 0
          0 0 0 0 0 0
          0 0 0 0 0 0
          0 0 0 0 0 0
          0 0 0 0 0 0
          0 0 0 0 0 0
          0 0 0 0 0 0
          0 0 0 0 0 0
          0 0 0 0 0 0
          0 0 0 0 0 0
          0 0
        </DataArray>
      </CellData>
      <Points>
        <DataArray type="Float64" Name="Points" NumberOfComponents="3" format="ascii" RangeMin="12870.330500212387" RangeMax="28185.857591442906">
          9200 9000 73.53356170654297 18800 9000 23.69512367248535
          9200 21000 108.53104400634766 18800 21000 50.677066802978516
          14000 9000 80.01192474365234 13985.82421875 15016.09765625 69.6815414428711
          9200 15000 104.65770721435547 18800 15000 8.620553970336914
          14000 21000 69.60555267333984 11491.6689453125 15045.220703125 75.37423706054688
          11482.4677734375 18146.1953125 62.87388610839844 9200 18000 125.55411529541016
          11547.96484375 11936.6337890625 75.64266967773438 9200 12000 87.36231231689453
          11600 9000 69.41181945800781 14021.91796875 11884.9384765625 75.44334411621094
          16400 9000 38.34562301635742 16482.060546875 11895.98046875 59.31739044189453
          16445.564453125 18065.07421875 65.12175750732422 18800 18000 26.969436645507812
          16400 21000 52.95511245727539 13961.6240234375 18134.37109375 64.57467651367188
          11600 21000 93.4030990600586 16483.341796875 14974.9375 56.531097412109375
          18800 12000 36.001129150390625 10301.7529296875 18095.10546875 60.931968688964844
          10300.9677734375 16567.072265625 71.39257049560547 11477.6923828125 16604.22265625 71.39643096923828
          10328.2470703125 19589.361328125 56.15991973876953 9200 19500 109.08250427246094
          9200 16500 135.89797973632812 10311.6591796875 15032.2705078125 77.95109558105469
          12730.501953125 15034.314453125 75.64151763916016 12715.3046875 16604.8125 73.83450317382812
          10379.9072265625 10474.544921875 77.6843032836914 9200 10500 79.82340240478516
          10400 9000 72.91710662841797 11575.236328125 10443.494140625 73.50467681884766
          12800 9000 70.56546783447266 12795.791015625 10414.666015625 74.68372344970703
          10354.916015625 11968.8076171875 81.79157257080078 10330.048828125 13496.2734375 83.16683197021484
          9200 13500 92.30516052246094 15208.451171875 18104.185546875 59.30369186401367
          15200.615234375 19587.2109375 53.42386245727539 13972.818359375 19609.53125 60.672386169433594
          16454.921875 10406.09765625 59.44210433959961 17600 9000 29.161222457885742
          17651.927734375 10434.4130859375 48.182586669921875 15256.6455078125 11883.1025390625 83.04085540771484
          15252.2314453125 13432.7939453125 79.0849838256836 14004.7861328125 13442.373046875 70.17765808105469
          15240.5546875 10395.763671875 85.42298889160156 14020.55078125 10398.001953125 80.12743377685547
          15200 9000 77.01288604736328 12781.267578125 11903.7412109375 75.66454315185547
          12754.70703125 13460.287109375 76.95831298828125 11516.5859375 13483.712890625 77.75477600097656
          17619.3984375 19525.0625 58.989906311035156 18800 19500 48.98307418823242
          17600 21000 52.917015075683594 16422.818359375 19556.2734375 59.99867630004883
          15200 21000 45.32551574707031 17642.267578125 18030.83203125 64.07268524169922
          17662.388671875 16505.462890625 61.954833984375 18800 16500 2.2755279541015625
          11524.2353515625 19621.22265625 57.019683837890625 10400 21000 57.74204635620117
          12716.0576171875 18151.583984375 66.54487609863281 13970.037109375 16586.59765625 69.35369873046875
          15225.962890625 16557.572265625 66.4361572265625 15241.40625 14994.84375 71.70530700683594
          12746.390625 19621.90234375 72.58035278320312 12800 21000 131.05300903320312
          17671.09765625 11933.2041015625 51.72308349609375 18800 10500 31.440378189086914
          17675.80859375 13451.90234375 47.61933517456055 18800 13500 33.66287612915039
          17673.2421875 14975.9482421875 41.64308547973633 16488.111328125 13430.544921875 59.297279357910156
          16468.94140625 16524.517578125 61.44153594970703 10972.302734375 10460.1044921875 75.45526885986328
          10977.603515625 9749.5908203125 73.51239013671875 11578.490234375 9739.400390625 71.77597045898438
          9783.7099609375 12728.6689453125 86.6899642944336 9200 12750 89.99871826171875
          9791.6982421875 11972.8671875 84.91621398925781 10876.3095703125 17362.96484375 62.113609313964844
          11476.8349609375 17379.1640625 66.7299575805664 10880.814453125 18128.572265625 58.21933364868164
          12098.28515625 15825.537109375 78.76285552978516 11482.9736328125 15825.62109375 73.7760238647461
          12107.1591796875 15041.3095703125 77.86946105957031 9768.7080078125 19544.0078125 76.0324478149414
          9761.2177734375 18795.9453125 78.26284790039062 10310.12109375 18850.615234375 59.241310119628906
          10959.0810546875 11198.576171875 77.1531982421875 10368.3994140625 11214.9697265625 80.00432586669922
          10299.4013671875 17332.58203125 66.48664093017578 9757.8671875 18041.21875 81.93250274658203
          9757.361328125 17283.818359375 90.6357650756836 17058.3515625 10416.3232421875 46.92402648925781
          17076.404296875 11153.3798828125 45.17474365234375 16472.91015625 11139.9609375 56.342620849609375
          12182.9970703125 9729.6669921875 71.37779235839844 12200 9000 68.67462158203125
          12721.46484375 15820.84375 75.67195892333984 13357.478515625 15025.724609375 70.74609375
          13348.6328125 15812.84765625 71.88912200927734 9200 18750 116.30857849121094
          9761.587890625 15765.994140625 92.49880981445312 10305.271484375 15800.099609375 72.52860260009766
          9758.7998046875 16525.228515625 93.03984832763672 10893.76953125 18882.2421875 54.861759185791016
          14586.77734375 19599.5625 53.77833938598633 14601.712890625 20286.654296875 54.698307037353516
          13994.119140625 20292.671875 65.59900665283203 10890.390625 15043.451171875 72.79431915283203
          10882.4443359375 15818.337890625 69.41256713867188 12092.5498046875 16607.646484375 74.96638488769531
          14609.091796875 9707.921875 81.63016510009766 15214.2314453125 9707.6787109375 80.59156036376953
          14631.369140625 10394.98046875 83.11593627929688 9776.5751953125 13486.9951171875 88.33709716796875
          10341.8017578125 12730.40625 82.7276382446289 9770.515625 14246.521484375 90.42318725585938
          9200 14250 96.27474212646484 17623.7265625 9725.6279296875 46.07075500488281
          17024.724609375 9717.7734375 43.326358795166016 10877.470703125 16591.8828125 66.66632080078125
          15201.94921875 18858.123046875 55.609397888183594 15829.478515625 18085.154296875 60.84846878051758
          15819.4541015625 18840.287109375 58.85768508911133 9779.755859375 20275.17578125 75.38607788085938
          9200 20250 111.84786987304688 9799.873046875 11221.7568359375 82.23148345947266
          9200 15750 120.0658187866211 9765.484375 15006.341796875 92.28720092773438
          10943.333984375 11954.478515625 78.23802185058594 10927.6416015625 12720.90234375 78.77055358886719
          9200 17250 137.2755126953125 14629.19921875 13436.701171875 74.95172119140625
          14621.84375 14220.87890625 72.57730102539062 13995.078125 14228.947265625 67.0872573852539
          12091.375 17384.92578125 71.289794921875 9804.4521484375 9755.49609375 76.2305908203125
          9200 9750 75.88089752197266 9800 9000 73.43116760253906
          10383.640625 9757.6494140625 75.32732391357422 11000 9000 71.3388671875
          14635.767578125 12655.412109375 78.42758178710938 15255.52734375 12654.853515625 84.62931823730469
          9806.255859375 10479.384765625 79.24414825439453 9200 11250 83.84603881835938
          12789.28515625 9721.3212890625 73.3208999633789 13400 9000 74.99142456054688
          13396.2255859375 9714.8359375 76.6600570678711 12184.0546875 10427.8642578125 73.16686248779297
          12175.4912109375 11161.529296875 74.1953125 11563.34765625 11179.5947265625 74.88335418701172
          14582.814453125 18873.451171875 56.367393493652344 13963.4306640625 18885.890625 61.6287956237793
          14585.279296875 18120.73046875 61.11380386352539 18200 9000 30.496807098388672
          18211.984375 9734.7646484375 47.69529724121094 16422.068359375 9712.94921875 57.0250244140625
          17000 9000 27.073009490966797 14014.2392578125 12659.263671875 73.89554595947266
          14640.2880859375 11881.8671875 79.58781433105469 15870.7333984375 11888.2685546875 80.00177764892578
          15873.1396484375 12656.826171875 78.77716064453125 14003.0068359375 9710.375 79.95397186279297
          14600 9000 82.2971420288086 15800 9000 59.417152404785156
          15818.4375 9709.62890625 76.732421875 14640.1015625 11124.48046875 81.83401489257812
          14025.2216796875 11127.3251953125 78.88811492919922 15253.0009765625 11125.9970703125 82.27222442626953
          15848.291015625 10399.84375 78.23797607421875 15864.083984375 11131.2626953125 73.20282745361328
          13408.416015625 10404.6123046875 77.26969909667969 13408.6923828125 11134.623046875 76.98064422607422
          13401.86328125 11892.1708984375 75.64960479736328 12791.5341796875 11146.21875 75.2364730834961
          12162.248046875 11919.044921875 74.8643798828125 13367.96875 14237.6005859375 70.16548919677734
          12741.7568359375 14246.87890625 75.82950592041016 12118.837890625 14256.228515625 79.28390502929688
          13379.5654296875 13450.21484375 72.54533386230469 13391.376953125 12666.6875 74.26476287841797
          10319.9462890625 14264.052734375 82.04717254638672 10913.2412109375 13493.140625 78.6377182006836
          11531.861328125 12706.591796875 76.59123992919922 10900.751953125 14268.005859375 76.76251983642578
          11503.0712890625 14264.11328125 77.79591369628906 12132.408203125 13471.9384765625 79.15863800048828
          12147.185546875 12691.314453125 76.73509979248047 12768.2685546875 12677.537109375 76.4797134399414
          18195.46875 20244.4296875 51.68260192871094 18800 20250 50.33567810058594
          18200 21000 51.336997985839844 17616.119140625 20242.166015625 54.803279876708984
          17000 21000 54.350154876708984 17021.91796875 20250.13671875 57.28845977783203
          18193.484375 19520.42578125 52.588016510009766 18199.51171875 18777.9296875 53.5363883972168
          18800 18750 43.253787994384766 15209.193359375 20279.1796875 51.081459045410156
          14600 21000 49.98228454589844 15813.244140625 19572.609375 56.1713752746582
          16432.87109375 18820.74609375 63.428707122802734 15815.892578125 20270.294921875 52.54974365234375
          16420.73828125 20260.341796875 56.04008483886719 15800 21000 48.53116989135742
          18219.82421875 16513.326171875 36.92768478393555 18223.98046875 15754.8486328125 32.33863067626953
          18800 15750 1.6862114667892456 18214.134765625 17271.1640625 43.48591232299805
          18800 17250 8.384506225585938 18207.07421875 18026.771484375 53.893272399902344
          17653.421875 17269.9140625 61.151092529296875 17052.041015625 18045.794921875 67.51976776123047
          17064.833984375 17280.86328125 67.33027648925781 17038.31640625 18801.05078125 66.03792572021484
          17630.08984375 18784.5078125 63.72992706298828 17026.421875 19539.431640625 61.97799301147461
          10364.7890625 20288.703125 58.18046188354492 9800 21000 78.02043151855469
          10919.5029296875 19611.46875 53.223140716552734 11497.11328125 18897.693359375 58.179176330566406
          10963.43359375 20297.64453125 56.750038146972656 11567.4482421875 20301.2734375 66.60404968261719
          11000 21000 64.95553588867188 13341.87890625 16597.435546875 71.1391830444336
          13977.390625 15802.419921875 70.21826171875 13338.03125 17376.533203125 68.81830596923828
          13964.4208984375 17365.564453125 67.33013153076172 13338.29296875 18145 65.92390441894531
          12713.0625 17383.384765625 71.02350616455078 12096.4404296875 18152.59765625 67.22901916503906
          14606.318359375 15790.26171875 70.32098388671875 14614.1650390625 15005.7333984375 71.7817153930664
          15234.224609375 15776.65234375 68.75315856933594 15865.671875 14983.9921875 66.1336898803711
          15859.068359375 15762.4140625 64.34908294677734 14598.462890625 16573.13671875 68.3516616821289
          14591.1171875 17351.5234375 65.45661163330078 13386.763671875 20297.328125 84.88394927978516
          13400 21000 105.62632751464844 12779.80859375 20300.4375 94.52249145507812
          12200 21000 122.69004821777344 12173.3447265625 20301.734375 89.07847595214844
          13359.275390625 19617.083984375 71.64066314697266 13344.4619140625 18895.3125 65.63653564453125
          12726.3115234375 18901.29296875 64.30364990234375 12134.3798828125 19623.630859375 63.17335891723633
          12109.7705078125 18902.78125 61.4467658996582 18218.595703125 10470.5673828125 44.906925201416016
          18800 9750 29.175308227539062 18223.69140625 11220.18359375 43.517608642578125
          18800 11250 33.25790023803711 18226.453125 11974.033203125 48.94878387451172
          17664.96875 11177.5341796875 44.75165557861328 17085.46875 11909.1015625 45.875030517578125
          18228.109375 14239.900390625 47.31105041503906 18800 14250 24.08016586303711
          18226.796875 14996.908203125 31.378318786621094 17675.20703125 14213.166015625 47.259429931640625
          17088.5625 14970.765625 47.41293716430664 17091.375 14202.607421875 48.58170700073242
          18228.48046875 13483.87109375 45.83427429199219 18228.10546875 12728.6181640625 44.15160369873047
          18800 12750 33.715553283691406 15247.40234375 14213.32421875 74.81935119628906
          15872.8525390625 13430.404296875 72.63801574707031 16486.705078125 12661.236328125 59.03940200805664
          15870.2021484375 14206.52734375 70.46532440185547 16486.91796875 14201.91796875 58.29390335083008
          17092.017578125 13436.2158203125 48.189945220947266 17090.099609375 12671.50390625 46.30316925048828
          17674.41015625 12692.0400390625 44.897377014160156 17669.033203125 15740.271484375 48.50058364868164
          17075.453125 16511.3359375 62.37870407104492 16458.109375 17297.70703125 64.73492431640625
          17083.37109375 15740.6181640625 52.350372314453125 16477.3671875 15749.45703125 57.72451400756836
          15840.4638671875 17316.537109375 62.6345329284668 15217.0673828125 17334.97265625 63.31243133544922
          15850.59765625 16540.81640625 63.69670486450195 13659.150390625 16200.572265625 70.57733917236328
          13973.552734375 16194.9091796875 69.86209869384766 13655.8515625 16592.3984375 70.04168701171875
          9518.7822265625 12720.548828125 88.24845123291016 9516.642578125 13097.6328125 89.21077728271484
          9200 13125 91.09294891357422 17091.998046875 13819.19921875 48.89107894897461
          17387.0546875 13442.46875 46.44112777709961 17387.01953125 13824.1806640625 47.686004638671875
          16120.296875 9711.189453125 70.42646026611328 16097.376953125 9386.5458984375 60.707786560058594
          16398.359375 9387.51171875 49.294776916503906 9787.625 12350.345703125 85.90737915039062
          10069.4697265625 11972.712890625 83.55766296386719 10063.9228515625 12351.5224609375 84.24057006835938
          11193.755859375 18891.5859375 56.1529655456543 11205.4052734375 19258.88671875 54.7618522644043
          10904.6943359375 19250.984375 53.521080017089844 11277.4375 9744.537109375 72.56330108642578
          11273.865234375 9407.01171875 71.6100845336914 11574.2470703125 9404.0810546875 70.80433654785156
          17336.365234375 18792.0703125 65.68929290771484 17343.0390625 18416.16796875 66.62437438964844
          17636.19140625 18408.87109375 64.72236633300781 11276.6220703125 10093.5595703125 73.48857879638672
          11578.3984375 10086.5966796875 72.6614761352539 11272.7978515625 10451.81640625 74.36740112304688
          18203.27734375 18403.10546875 53.815574645996094 17918.3125 18779.34375 59.59176254272461
          17923.439453125 18404.095703125 60.971534729003906 11782.626953125 16995.76171875 71.43749237060547
          11476.5751953125 16992.3671875 69.02703857421875 11783.7783203125 16606.859375 73.9068374633789
          13344.94921875 16205.5966796875 71.73229217529297 13028.287109375 16601.61328125 72.49774932861328
          13031.1484375 16209.859375 73.23343658447266 9795.8359375 11596.537109375 83.64069366455078
          9523.376953125 11967.6611328125 86.00743103027344 9525.7275390625 11592.185546875 84.56956481933594
          10621.3740234375 19602.4140625 53.34247970581055 10608.10546875 19239.42578125 54.02538299560547
          10877.708984375 17746.74609375 59.973602294921875 10587.71484375 18114.1015625 58.2373046875
          10585.23046875 17732.70703125 59.888153076171875 13649.970703125 17757.53515625 66.70059967041016
          13337.5458984375 17762.53125 67.28865814208984 13651.1259765625 17371.501953125 68.008056640625
          10976.447265625 10100.4794921875 74.49446868896484 16181.4501953125 13043.8818359375 67.04883575439453
          16487.767578125 13045.5546875 58.992835998535156 16181.443359375 13430.015625 66.3889389038086
          9521.0390625 12343.8447265625 87.2305908203125 9200 12375 88.79458618164062
          11846.423828125 12311.990234375 75.56185913085938 12154.7880859375 12303.779296875 75.69255828857422
          11838.521484375 12698.90234375 76.46958923339844 10030.306640625 18826.55859375 66.70173645019531
          10026.7705078125 18449.63671875 67.15314483642578 10305.009765625 18474.1484375 60.20936965942383
          12457.28515625 12684.1357421875 76.8769302368164 12450.078125 13074.3115234375 77.85596466064453
          12139.673828125 13080.9140625 77.92066192626953 10876.3271484375 16977.85546875 64.52136993408203
          11175.21484375 16599.37890625 68.4414291381836 11174.115234375 16986.53125 66.30764770507812
          12761.458984375 13068.1572265625 76.89471435546875 12443.041015625 13465.982421875 78.6725082397461
          10592.01171875 18493.2265625 56.972991943359375 12464.458984375 12296.091796875 75.98821258544922
          12774.94921875 12289.1171875 76.02668762207031 11175.998046875 17757 61.91230392456055
          11478.7080078125 17764.03515625 64.76139068603516 11179.5546875 18139.048828125 60.03609085083008
          18485.48828125 20606.87109375 50.92618942260742 18800 20625 50.56703567504883
          18500 21000 50.857364654541016 13352.8193359375 15419.501953125 71.5274658203125
          13671.583984375 15021.01953125 69.52108764648438 13667.0625 15414.6640625 70.45791625976562
          17025.529296875 20590.03125 55.58151626586914 16700 21000 54.12712860107422
          16725.83984375 20592.828125 55.453495025634766 11174.283203125 17372.5859375 63.995174407958984
          18471.74609375 18782.15625 47.64002227783203 18473.853515625 18407.62109375 44.76754379272461
          18800 18375 36.738685607910156 10674.392578125 10467.912109375 76.60484313964844
          10678.4296875 10106.931640625 75.5375747680664 16124.365234375 20598.6796875 52.689361572265625
          16425.380859375 20595.76171875 54.41365051269531 16100 21000 50.94701385498047
          11875.1806640625 9401.193359375 70.31283569335938 12176.5078125 9398.439453125 70.31843566894531
          11880.427734375 9734.400390625 71.31548309326172 18484.904296875 16147.732421875 20.580232620239258
          18800 16125 1.4091280698776245 18483.5546875 16525.083984375 22.334630966186523
          9757.330078125 17662.72265625 86.47688293457031 10023.28125 17310.79296875 75.91390991210938
          10023.5 17691.2421875 71.41121673583984 17937.98046875 17268.48828125 53.48130798339844
          17933.45703125 17648.19921875 56.85081100463867 17648.06640625 17651.01171875 62.4857063293457
          13034.7265625 15817.201171875 73.58617401123047 13038.951171875 15423.890625 73.4898452758789
          16721.94140625 20255.177734375 57.13908004760742 12717.9580078125 16213.2939453125 74.89920043945312
          17954.8515625 12329.4296875 50.53148651123047 17672.95703125 12312.5 47.69624328613281
          17953.39453125 11951.169921875 50.214622497558594 10661.595703125 11207.4248046875 78.59317016601562
          10654.1689453125 11583.4375 79.38229370117188 10361.708984375 11590.630859375 81.02061462402344
          13025.271484375 17380.560546875 69.87102508544922 13025.4345703125 17766.46484375 68.00779724121094
          12713.787109375 17769.23046875 68.9144287109375 12409.1591796875 15823.6787109375 77.67943572998047
          12413.3212890625 15431.06640625 77.87521362304688 12725.669921875 15427.783203125 75.89036560058594
          17386.478515625 13061.1494140625 45.01831817626953 17675.4140625 13071.7978515625 45.25444412231445
          11900 9000 68.78727722167969 16790.19140625 12665.361328125 51.28034210205078
          16791.40234375 13048.65625 51.988258361816406 11789.2587890625 15826.310546875 76.75396728515625
          11786.0908203125 16216.90234375 76.23938751220703 11479.8681640625 16215.2236328125 73.03626251220703
          17951.068359375 15745.193359375 39.306373596191406 17948.50390625 16126.138671875 43.821311950683594
          17665.99609375 16122.826171875 57.43361282348633 9503.767578125 18381.935546875 96.59548950195312
          9200 18375 120.59077453613281 9503.251953125 18005.189453125 100.65836334228516
          16788.1953125 12282.841796875 50.88365173339844 17088.15234375 12289.8935546875 45.556480407714844
          9529.880859375 10844.5322265625 81.30750274658203 9200 10875 81.8692855834961
          9531.05078125 10473.3916015625 79.5807876586914 18227.43359375 12351.2587890625 48.30461883544922
          17955.951171875 12707.8466796875 46.09532928466797 13043.7001953125 15030.1748046875 73.07797241210938
          15871.765625 13818.2666015625 71.5660400390625 15559.3076171875 14209.7744140625 73.50029754638672
          15561.33984375 13820.390625 75.0164566040039 13340.4990234375 18522.984375 65.19109344482422
          13035.2509765625 18898.79296875 65.51322937011719 13030.146484375 18526.72265625 65.10259246826172