<?xml version="1.0"?>
<VTKFile type="UnstructuredGrid" version="1.0" byte_order="LittleEndian" header_type="UInt64">
  <UnstructuredGrid>
    <Piece NumberOfPoints="1089" NumberOfCells="2048">
      <PointData>
        <DataArray type="Float64" Name="Maechtigkeit" format="ascii" RangeMin="89.9999771118164" RangeMax="110.0000228881836">
          104.98355102539062 100.11483764648438 102.93138122558594 93.141845703125 100.04562377929688 95.17329406738281
          90.80097961425781 91.53919982910156 90 102.9405288696289 103.57318878173828 109.28890228271484
          91.83637237548828 104.83812713623047 99.08795166015625 102.90299224853516 101.28190612792969 103.99871826171875
          91.57483673095703 100.92301177978516 94.66077423095703 104.08927917480469 103.9400405883789 92.3354263305664
          107.2735595703125 105.2563705444336 103.15185546875 105.0327377319336 108.95280456542969 98.61837768554688
          108.32001495361328 107.2860336303711 107.76776885986328 97.8135986328125 99.61102294921875 94.25373840332031
          93.57887268066406 110 104.3128890991211 99.4425048828125 105.3004379272461 107.85267639160156
          109.32487487792969 91.40715026855469 90 95.98110961914062 94.16515350341797 90.14791107177734
          94.83401489257812 104.20050811767578 99.87686920166016 99.14627075195312 108.32994842529297 101.80998229980469
          104.10537719726562 103.42440795898438 108.79275512695312 107.51448059082031 105.03984069824219 90.7218017578125
          95.97109985351562 91.11775207519531 90.43548583984375 97.25914001464844 91.25619506835938 90.2098159790039
          92.05308532714844 100.20179748535156 90.57112121582031 101.18336486816406 90.0148696899414 91.00769805908203
          92.46228790283203 101.26554870605469 106.12012481689453 91.02826690673828 97.771240234375 108.076904296875
          91.85537719726562 91.0999984741211 91.24365234375 91.33078002929688 91.42150115966797 91.62789916992188
          104.0828857421875 107.46440124511719 109.55572509765625 91.39501953125 90.88058471679688 90.95356750488281
          107.92681121826172 106.18515014648438 106.4908218383789 107.1769027709961 108.3276596069336 108.01580810546875
          106.7348861694336 102.16492462158203 98.7327880859375 99.4907455444336 99.60137176513672 106.4149169921875
          93.9735336303711 95.64482116699219 106.04947662353516 107.88386535644531 109.6402816772461 105.68728637695312
          107.70523834228516 101.62429809570312 90.94449615478516 94.44996643066406 92.33157348632812 98.85269165039062
          103.02657318115234 108.83535766601562 91.21014404296875 94.61299896240234 90.86830139160156 105.81549835205078
          106.72955322265625 98.37925720214844 99.54896545410156 92.288330078125 95.14134216308594 109.34187316894531
          100.45082092285156 109.99999237060547 105.03968048095703 95.78385162353516 99.53060913085938 109.73400115966797
          108.99168395996094 100.37080383300781 92.77716064453125 98.30931091308594 99.06500244140625 98.668701171875
          105.26156616210938 101.17782592773438 106.92945098876953 103.55790710449219 96.56436920166016 92.27400207519531
          105.79094696044922 97.95533752441406 103.9070053100586 107.87322235107422 102.70780944824219 103.11400604248047
          106.3240737915039 106.3544692993164 108.28523254394531 108.02375030517578 107.45978546142578 102.19450378417969
          108.8429946899414 108.78894805908203 91.81776428222656 97.59097290039062 89.99999237060547 90.69607543945312
          92.64308166503906 97.13871002197266 103.51689147949219 101.5214614868164 101.72785949707031 103.94862365722656
          106.65159606933594 98.87644958496094 110 102.1800308227539 98.97309112548828 100.34626770019531
          104.48238372802734 109.3020248413086 100.19731903076172 106.07411193847656 103.48429870605469 106.96023559570312
          110 103.33901977539062 105.41954803466797 108.9097900390625 101.29972076416016 104.6282958984375
          98.80859375 100.02603149414062 101.13774108886719 102.99518585205078 105.41060638427734 101.1649398803711
          105.71870422363281 103.21635437011719 100.25070190429688 92.6617660522461 94.8663101196289 99.47744750976562
          92.36918640136719 90 97.58145904541016 97.1465072631836 102.00611114501953 101.61840057373047
          108.7677230834961 91.91570281982422 90 92.10979461669922 90.650390625 91.23917388916016
          90.70486450195312 94.05756378173828 99.22377014160156 96.49821472167969 92.76255798339844 90.78155517578125
          97.17794036865234 104.81414794921875 93.32524871826172 91.98046875 91.50254821777344 96.54649353027344
          105.20956420898438 103.04583740234375 90.00000762939453 90.62267303466797 102.95223999023438 91.86854553222656
          103.19978332519531 90.68441772460938 91.1757583618164 90.60248565673828 98.90733337402344 91.35843658447266
          91.40695190429688 94.59471893310547 89.99998474121094 90.7989730834961 92.63020324707031 92.6165771484375
          90.21707153320312 107.17235565185547 97.36604309082031 96.59138488769531 93.1981201171875 96.31172943115234
          104.44900512695312 90 89.9999771118164 94.20238494873047 91.48987579345703 93.9210205078125
          92.33290100097656 91.82675170898438 106.65203857421875 105.04854583740234 108.2720947265625 107.88851165771484
          106.72758483886719 92.33486938476562 90 94.77205657958984 91.8056411743164 97.00457000732422
          107.33354187011719 101.08721923828125 100.43255615234375 109.99485778808594 109.0701675415039 105.39964294433594
          94.0653305053711 90.3923568725586 90.1933822631836 90.75160217285156 90.19696807861328 92.56513977050781
          90.38038635253906 90.89308166503906 91.06343841552734 91.13060760498047 92.78475952148438 93.62935638427734
          90.0785903930664 94.27067565917969 91.95487976074219 91.31822967529297 91.63178253173828 92.99234771728516
          91.75605010986328 91.5057144165039 91.98090362548828 90.93964385986328 91.86750030517578 92.13299560546875
          92.8667984008789 90 90 91.02479553222656 92.57099151611328 92.67472076416016
          91.65797424316406 103.44639587402344 100.52703094482422 99.3273696899414 91.7814712524414 90
          90.32087707519531 91.29824829101562 93.20266723632812 92.80311584472656 92.58610534667969 90
          93.78416442871094 91.23673248291016 92.06228637695312 105.36202239990234 101.28535461425781 101.11298370361328
          106.03400421142578 106.5529556274414 105.41606140136719 91.17560577392578 91.5616226196289 91.38375854492188
          104.3397445678711 104.0404281616211 100.0416259765625 90 90.4747085571289 90.95048522949219
          94.486328125 92.79478454589844 93.48137664794922 92.0724105834961 91.11181640625 91.72298431396484
          91.55644989013672 90.88958740234375 90.98734283447266 103.66974639892578 107.32258605957031 102.55921173095703
          91.26431274414062 91.25130462646484 91.34109497070312 90.62972259521484 90.2657699584961 91.41876983642578
          91.18082427978516 92.25377655029297 91.76921844482422 107.5401382446289 109.0049819946289 108.08190155029297
          91.40962982177734 92.33876037597656 92.33057403564453 99.03363800048828 103.57223510742188 91.54016876220703
          92.13677215576172 93.41650390625 104.17161560058594 103.65116119384766 107.71814727783203 101.55817413330078
          104.677734375 105.88140106201172 104.60464477539062 109.40605163574219 104.1163330078125 92.07152557373047
          91.09619140625 92.72423553466797 105.72689056396484 107.2994613647461 104.97537994384766 93.46210479736328
          91.48184204101562 109.31230926513672 104.46077728271484 102.11761474609375 90.17440032958984 90.65817260742188
          91.17998504638672 91.70753479003906 93.67601776123047 92.98287963867188 90.27465057373047 90.57852935791016
          90.81462097167969 90.94763946533203 92.6141586303711 93.52651977539062 93.50289916992188 95.12320709228516
          108.62659454345703 110.00000762939453 106.19451141357422 105.39057159423828 105.38558959960938 107.88108825683594
          106.83182525634766 107.98966217041016 107.38448333740234 108.08618927001953 108.3961181640625 102.91002655029297
          103.62638092041016 98.17308807373047 106.98458862304688 107.80270385742188 106.85283660888672 102.39682006835938
          102.04165649414062 103.40045166015625 107.1663589477539 102.22367095947266 105.09820556640625 110.00000762939453
          107.1211929321289 110 102.3960189819336 104.08403778076172 106.75257110595703 103.58505249023438
          105.56168365478516 108.49694061279297 108.55034637451172 108.52992248535156 108.77589416503906 107.31783294677734
          103.61426544189453 104.92143249511719 101.4961929321289 102.29362487792969 99.75860595703125 98.25224304199219
          97.23833465576172 94.83963775634766 102.05245971679688 98.95123291015625 103.72776794433594 103.1150131225586
          104.14892578125 104.30513763427734 103.33139038085938 109.4066390991211 103.48564147949219 105.74646759033203
          104.32221221923828 96.33511352539062 98.26494598388672 95.84355163574219 103.2587661743164 102.46255493164062
          105.8630599975586 108.8673324584961 108.94210052490234 103.2960205078125 106.22481536865234 102.77613830566406
          105.91627502441406 103.04793548583984 99.8069076538086 96.33451843261719 96.75914001464844 94.55723571777344
          96.68936920166016 95.70639038085938 93.6505355834961 94.11286926269531 97.12559509277344 100.92418670654297
          100.6187515258789 92.87381744384766 97.82449340820312 95.5694580078125 93.36354064941406 91.92666625976562
          93.13973999023438 108.83013153076172 109.2331771850586 107.34697723388672 105.79115295410156 103.76765441894531
          107.07477569580078 109.51268768310547 109.91151428222656 109.90962219238281 99.03053283691406 96.89934539794922
          96.79007720947266 108.85794830322266 108.84882354736328 108.1877670288086 99.86309051513672 107.02912902832031
          102.21066284179688 103.53278350830078 93.72798156738281 96.7737808227539 92.44244384765625 95.24978637695312
          96.04326629638672 93.74832916259766 105.1717300415039 106.44107055664062 103.258544921875 105.76504516601562
          103.60519409179688 100.0472412109375 102.01290893554688 108.44839477539062 107.87599182128906 106.70611572265625
          108.41970825195312 96.62520599365234 95.16944885253906 103.16981506347656 105.75729370117188 106.11492919921875
          90.5440673828125 90.7679443359375 106.72610473632812 108.64339447021484 104.8471450805664 103.11084747314453
          101.9409408569336 101.93936920166016 101.4478988647461 97.41570281982422 104.42939758300781 102.24968719482422
          104.37710571289062 104.4237060546875 100.51695251464844 93.54115295410156 91.41223907470703 94.41325378417969
          93.80382537841797 92.17676544189453 93.37297821044922 91.44963073730469 90.87752532958984 90.59282684326172
          90.56710052490234 92.59683990478516 95.43982696533203 107.04875183105469 105.11552429199219 104.90428924560547
          107.86283874511719 105.83670043945312 107.57156372070312 105.09457397460938 94.5013198852539 95.30368041992188
          91.94255828857422 91.13086700439453 102.762451171875 93.19143676757812 94.75967407226562 105.26994323730469
          106.21214294433594 101.62850189208984 97.45781707763672 103.4182357788086 101.00192260742188 110
          107.83360290527344 106.76005554199219 104.18184661865234 107.61312103271484 104.0694580078125 101.10531616210938
          106.55218505859375 97.15563201904297 94.10197448730469 95.13082885742188 98.89971923828125 97.27772521972656
          109.3509750366211 108.94904327392578 108.46833038330078 109.43014526367188 109.15984344482422 109.59239959716797
          109.74124145507812 95.68498229980469 96.33876037597656 93.02192687988281 92.12298583984375 93.53836822509766
          95.40065002441406 98.9329605102539 104.63509368896484 101.22940826416016 107.66414642333984 102.86492919921875
          96.53563690185547 95.65570831298828 98.3464584350586 101.5188217163086 95.65587615966797 96.31298828125
          99.49262237548828 103.87715911865234 100.72736358642578 107.81623077392578 105.94813537597656 90.71932983398438
          101.35041809082031 95.29208374023438 98.51046752929688 90.45362854003906 90 91.50176239013672
          91.05262756347656 91.15301513671875 108.63755798339844 99.65229034423828 105.15922546386719 108.30513000488281
          103.28910064697266 105.35323333740234 108.98094177246094 108.66107940673828 108.57506561279297 110
          107.35342407226562 106.50862121582031 105.60574340820312 98.9923095703125 99.8960952758789 101.20349884033203
          104.67662811279297 100.1277084350586 96.64006042480469 97.6412582397461 94.70793151855469 91.91082763671875
          108.30039978027344 104.53385925292969 103.69151306152344 100.58810424804688 107.44892883300781 109.3764419555664
          107.59099578857422 107.93014526367188 107.1783218383789 107.45242309570312 95.40850830078125 95.48072052001953
          98.8563461303711 92.63175964355469 90 90 90.30902099609375 90
          91.69110107421875 92.75004577636719 90.70760345458984 90 90.78866577148438 91.06402587890625
          98.07880401611328 99.6414794921875 101.33416748046875 98.54841613769531 105.03054809570312 102.0018310546875
          100.85127258300781 106.8871841430664 100.04899597167969 108.38579559326172 102.37527465820312 103.66122436523438
          103.98580169677734 106.29336547851562 102.85015106201172 102.95753479003906 101.8821029663086 99.2799072265625
          105.01380157470703 95.65567016601562 101.95356750488281 110 109.02848052978516 108.51359558105469
          108.28800201416016 105.58708190917969 101.30460357666016 99.07494354248047 99.60391235351562 100.051025390625
          101.09119415283203 102.08003234863281 104.9559555053711 99.98088073730469 102.05081176757812 105.36719512939453
          107.57842254638672 101.97863006591797 103.21627807617188 100.46259307861328 103.51201629638672 108.59114837646484
          108.60218811035156 108.5426025390625 104.65213012695312 104.40743255615234 104.2088394165039 105.4189224243164
          108.01798248291016 105.17133331298828 105.0123062133789 107.9354248046875 105.90403747558594 100.97708129882812
          102.9707260131836 110 105.95726013183594 109.83246612548828 105.5575942993164 105.05183410644531
          105.91024780273438 102.48414611816406 101.4057846069336 105.69171905517578 105.19234466552734 107.39398956298828
          110 103.76832580566406 107.11383819580078 101.54960632324219 110.0000228881836 110.00000762939453
          107.67957305908203 100.3747787475586 99.72103118896484 99.7627944946289 99.68067169189453 102.45039367675781
          101.42556762695312 100.80980682373047 102.32659912109375 100.91044616699219 108.70912170410156 108.01557159423828
          103.24409484863281 101.08466339111328 99.59595489501953 98.93968200683594 100.90116119384766 99.92891693115234
          99.41653442382812 106.65428161621094 105.69412231445312 104.50228881835938 105.49118041992188 107.5065689086914
          96.4745101928711 97.9161376953125 98.84395599365234 100.0189437866211 102.63703155517578 103.95911407470703
          102.39139556884766 105.497314453125 105.18760681152344 106.56930541992188 103.98771667480469 108.18011474609375
          107.10179901123047 104.55095672607422 104.21308898925781 102.9312515258789 105.05844116210938 99.55729675292969
          103.61293029785156 103.45421600341797 99.01295471191406 99.41397094726562 100.98887634277344 101.90730285644531
          102.9130859375 103.44698333740234 91.293212890625 90.77678680419922 90.33828735351562 100.2672119140625
          90.9384536743164 103.1317138671875 103.628662109375 102.36312103271484 91.0859375 90.86738586425781
          99.9079818725586 100.15275573730469 100.94649505615234 100.46575927734375 103.3000717163086 101.71966552734375
          97.09010314941406 93.9255599975586 93.49986267089844 108.63311004638672 109.67082977294922 106.28931427001953
          103.76951599121094 106.97008514404297 98.95144653320312 96.3014144897461 94.53839111328125 91.7601547241211
          90.00459289550781 90.33285522460938 91.38236236572266 90.80685424804688 90.37619018554688 92.625
          92.77918243408203 97.44886016845703 99.9710464477539 99.36721801757812 94.69469451904297 93.53205871582031
          96.48910522460938 95.2508544921875 98.30690002441406 92.8829574584961 91.40103149414062 90.83890533447266
          107.46324157714844 96.0053939819336 91.4208984375 91.36331939697266 92.12068939208984 94.69464874267578
          93.99239349365234 95.03922271728516 93.285888671875 94.65835571289062 96.81585693359375 96.3379898071289
          108.08478546142578 107.64862823486328 106.51251220703125 101.52534484863281 101.14991760253906 99.6830825805664
          103.1084213256836 104.99273681640625 104.28253936767578 100.6597900390625 101.15174102783203 94.2358627319336
          96.47789001464844 104.01560974121094 93.97815704345703 100.32066345214844 94.21964263916016 91.42691040039062
          90.9950180053711 90 93.82981872558594 103.03330993652344 93.65332794189453 91.52533721923828
          90.80176544189453 90.3536376953125 94.33494567871094 94.80462646484375 101.82058715820312 91.93922424316406
          91.67149353027344 102.03064727783203 92.15754699707031 95.47888946533203 91.72396087646484 91.16886901855469
          90.33599090576172 91.19012451171875 89.9999771118164 90.02997589111328 90.78298950195312 95.81657409667969
          90.0411148071289 97.2346420288086 91.85565185546875 90 90 95.1645736694336
          95.31024169921875 96.57771301269531 91.45915985107422 92.62884521484375 93.80571746826172 90.56766510009766
          91.8367919921875 90 90 90 90 96.23363494873047
          94.51061248779297 105.11253356933594 96.78478240966797 105.08914184570312 96.63916015625 91.93614196777344
          90 90 90.39879608154297 92.2470703125 90.36893463134766 97.81128692626953
          95.52406311035156 90 98.84136199951172 98.3791732788086 98.51070404052734 97.8362808227539
          95.40178680419922 95.7439193725586 94.93214416503906 104.71048736572266 92.292724609375 90.35138702392578
          90 92.13371276855469 97.36958312988281 98.29344940185547 103.12723541259766 93.16998291015625
          95.06028747558594 94.52947235107422 90.35029602050781 90.00000762939453 90.38215637207031 91.71403503417969
          90 92.17485809326172 93.21289825439453 96.3495864868164 94.48997497558594 93.6388168334961
          92.75628662109375 90 91.35539245605469 91.57215881347656 90.71530151367188 92.1983642578125
          90.00000762939453 90.00000762939453 91.66047668457031 90.61347961425781 91.15166473388672 92.38607025146484
          93.07134246826172 93.41292572021484 107.66378784179688 106.7017593383789 107.18476104736328 105.66287231445312
          104.88362884521484 106.39647674560547 107.0965805053711 108.37908172607422 108.58875274658203 108.67786407470703
          108.66189575195312 107.92861938476562 108.0384521484375 106.83403778076172 108.4511489868164 108.63199615478516
          90 90.05087280273438 91.49652862548828 93.55780792236328 92.04759979248047 95.447265625
          96.64299774169922 92.9229507446289 92.08171844482422 91.55496215820312 99.90873718261719 98.66735076904297
          97.5590591430664 96.3577880859375 93.52376556396484 102.17472076416016 99.18311309814453 95.47537231445312
          105.41593933105469 105.0633773803711 107.97537994384766 109.56535339355469 108.24469757080078 110
          109.66154479980469 109.84869384765625 109.44515991210938 109.32916259765625 97.00794219970703 93.00341033935547
          99.40965270996094 95.7354507446289 102.09943389892578 102.60414123535156 107.30326843261719 108.98247528076172
          107.17290496826172 109.24253845214844 97.87274169921875 95.60328674316406 93.36863708496094 91.36186981201172
          90 91.23429870605469 91.12660217285156 90.33600616455078 91.3233871459961 91.60427856445312
          92.1755142211914 91.73628234863281 93.51420593261719 90.37621307373047 90 91.30177307128906
          92.0073013305664 90 90.21037292480469 90.37197875976562 90.53531646728516 90.64263916015625
          90.04888916015625 90.33572387695312 90.95972442626953 91.13483428955078 90.93942260742188 91.01197052001953
          90.8626708984375 91.8489990234375 91.29267883300781 91.77449798583984 91.0645980834961 90.84912109375
          90.52671813964844 90.68576049804688 93.94859313964844 94.97100067138672 93.6609878540039 92.61561584472656
          92.36540985107422 92.9197998046875 95.2591552734375 91.27622985839844 92.45024871826172 90.57148742675781
          90.24163055419922 90.61421203613281 91.82240295410156 91.62744140625 92.05606079101562 92.26175689697266
          91.00916290283203 92.61841583251953 91.94452667236328 91.12638092041016 91.16641235351562 91.73301696777344
          91.20555877685547 91.33296203613281 94.30924987792969 92.94268035888672 92.25465393066406 94.33757019042969
          92.99264526367188 91.77530670166016 92.51253509521484 91.35071563720703 92.41405487060547 92.10588836669922
          91.9494857788086 91.547119140625 92.4227066040039
        </DataArray>
      </PointData>
      <CellData>
        <DataArray type="Int32" Name="MaterialIDs" format="ascii" RangeMin="0" RangeMax="0">
          0 0 0 0 0 0
          0 0 0 0 0 0
          0 0 0 0 0 0
          0 0 0 0 0 0
          0 0 0 0 0 0
          0 0 0 0 0 0
          0 0 0 0 0 0
          0 0 0 0 0 0
          0 0 0 0 0 0
          0 0 0 0 0 0
          0 0 0 0 0 0
          0 0 0 0 0 0
          0 0 0 0 0 0
          0 0 0 0 0 0
          0 0 0 0 0 0
          0 0 0 0 0 0
          0 0 0 0 0 0
          0 0 0 0 0 0
          0 0 0 0 0 0
          0 0 0 0 0 0
          0 0 0 0 0 0
          0 0 0 0 0 0
          0 0 0 0 0 0
          0 0 0 0 0 0
          0 0 0 0 0 0
          0 0 0 0 0 0
          0 0 0 0 0 0
          0 0 0 0 0 0
          0 0 0 0 0 0
          0 0 0 0 0 0
          0 0 0 0 0 0
          0 0 0 0 0 0
          0 0 0 0 0 0
          0 0 0 0 0 0
          0 0 0 0 0 0
          0 0 0 0 0 0
          0 0 0 0 0 0
          0 0 0 0 0 0
          0 0 0 0 0 0
          0 0 0 0 0 0
          0 0 0 0 0 0
          0 0 0 0 0 0
          0 0 0 0 0 0
          0 0 0 0 0 0
          0 0 0 0 0 0
          0 0 0 0 0 0
          0 0 0 0 0 0
          0 0 0 0 0 0
          0 0 0 0 0 0
          0 0 0 0 0 0
          0 0 0 0 0 0
          0 0 0 0 0 0
          0 0 0 0 0 0
          0 0 0 0 0 0
          0 0 0 0 0 0
          0 0 0 0 0 0
          0 0 0 0 0 0
          0 0 0 0 0 0
          0 0 0 0 0 0
          0 0 0 0 0 0
          0 0 0 0 0 0
          0 0 0 0 0 0
          0 0 0 0 0 0
          0 0 0 0 0 0
          0 0 0 0 0 0
          0 0 0 0 0 0
          0 0 0 0 0 0
          0 0 0 0 0 0
          0 0 0 0 0 0
          0 0 0 0 0 0
          0 0 0 0 0 0
          0 0 0 0 0 0
          0 0 0 0 0 0
          0 0 0 0 0 0
          0 0 0 0 0 0
          0 0 0 0 0 0
          0 0 0 0 0 0
          0 0 0 0 0 0
          0 0 0 0 0 0
          0 0 0 0 0 0
          0 0 0 0 0 0
          0 0 0 0 0 0
          0 0 0 0 0 0
          0 0 0 0 0 0
          0 0 0 0 0 0
          0 0 0 0 0 0
          0 0 0 0 0 0
          0 0 0 0 0 0
          0 0 0 0 0 0
          0 0 0 0 0 0
          0 0 0 0 0 0
          0 0 0 0 0 0
          0 0 0 0 0 0
          0 0 0 0 0 0
          0 0 0 0 0 0
          0 0 0 0 0 0
          0 0 0 0 0 0
          0 0 0 0 0 0
          0 0 0 0 0 0
          0 0 0 0 0 0
          0 0 0 0 0 0
          0 0 0 0 0 0
          0 0 0 0 0 0
          0 0 0 0 0 0
          0 0 0 0 0 0
          0 0 0 0 0 0
          0 0 0 0 0 0
          0 0 0 0 0 0
          0 0 0 0 0 0
          0 0 0 0 0 0
          0 0 0 0 0 0
          0 0 0 0 0 0
          0 0 0 0 0 0
          0 0 0 0 0 0
          0 0 0 0 0 0
          0 0 0 0 0 0
          0 0 0 0 0 0
          0 0 0 0 0 0
          0 0 0 0 0 0
          0 0 0 0 0 0
          0 0 0 0 0 0
          0 0 0 0 0 0
          0 0 0 0 0 0
          0 0 0 0 0 0
          0 0 0 0 0 0
          0 0 0 0 0 0
          0 0 0 0 0 0
          0 0 0 0 0 0
          0 0 0 0 0 0
          0 0 0 0 0 0
          0 0 0 0 0 0
          0 0 0 0 0 0
          0 0 0 0 0 0
          0 0 0 0 0 0
          0 0 0 0 0 0
          0 0 0 0 0 0
          0 0 0 0 0 0
          0 0 0 0 0 0
          0 0 0 0 0 0
          0 0 0 0 0 0
          0 0 0 0 0 0
          0 0 0 0 0 0
          0 0 0 0 0 0
          0 0 0 0 0 0
          0 0 0 0 0 0
          0 0 0 0 0 0
          0 0 0 0 0 0
          0 0 0 0 0 0
          0 0 0 0 0 0
          0 0 0 0 0 0
          0 0 0 0 0 0
          0 0 0 0 0 0
          0 0 0 0 0 0
          0 0 0 0 0 0
          0 0 0 0 0 0
          0 0 0 0 0 0
          0 0 0 0 0 0
          0 0 0 0 0 0
          0 0 0 0 0 0
          0 0 0 0 0 0
          0 0 0 0 0 0
          0 0 0 0 0 0
          0 0 0 0 0 0
          0 0 0 0 0 0
          0 0 0 0 0 0
          0 0 0 0 0 0
          0 0 0 0 0 0
          0 0 0 0 0 0
          0 0 0 0 0 0
          0 0 0 0 0 0
          0 0 0 0 0 0
          0 0 0 0 0 0
          0 0 0 0 0 0
          0 0 0 0 0 0
          0 0 0 0 0 0
          0 0 0 0 0 0
          0 0 0 0 0 0
          0 0 0 0 0 0
          0 0 0 0 0 0
          0 0 0 0 0 0
          0 0 0 0 0 0
          0 0 0 0 0 0
          0 0 0 0 0 0
          0 0 0 0 0 0
          0 0 0 0 0 0
          0 0 0 0 0 0
          0 0 0 0 0 0
          0 0 0 0 0 0
          0 0 0 0 0 0
          0 0 0 0 0 0
          0 0 0 0 0 0
          0 0 0 0 0 0
          0 0 0 0 0 0
          0 0 0 0 0 0
          0 0 0 0 0 0
          0 0 0 0 0 0
          0 0 0 0 0 0
          0 0 0 0 0 0
          0 0 0 0 0 0
          0 0 0 0 0 0
          0 0 0 0 0 0
          0 0 0 0 0 0
          0 0 0 0 0 0
          0 0 0 0 0 0
          0 0 0 0 0 0
          0 0 0 0 0 0
          0 0 0 0 0 0
          0 0 0 0 0 0
          0 0 0 0 0 0
          0 0 0 0 0 0
          0 0 0 0 0 0
          0 0 0 0 0 0
          0 0 0 0 0 0
          0 0 0 0 0 0
          0 0 0 0 0 0
          0 0 0 0 0 0
          0 0 0 0 0 0
          0 0 0 0 0 0
          0 0 0 0 0 0
          0 0 0 0 0 0
          0 0 0 0 0 0
          0 0 0 0 0 0
          0 0 0 0 0 0
          0 0 0 0 0 0
          0 0 0 0 0 0
          0 0 0 0 0 0
          0 0 0 0 0 0
          0 0 0 0 0 0
          0 0 0 0 0 0
          0 0 0 0 0 0
          0 0 0 0 0 0
          0 0 0 0 0 0
          0 0 0 0 0 0
          0 0 0 0 0 0
          0 0 0 0 0 0
          0 0 0 0 0 0
          0 0 0 0 0 0
          0 0 0 0 0 0
          0 0 0 0 0 0
          0 0 0 0 0 0
          0 0 0 0 0 0
          0 0 0 0 0 0
          0 0 0 0 0 0
          0 0 0 0 0 0
          0 0 0 0 0 0
          0 0 0 0 0 0
          0 0 0 0 0 0
          0 0 0 0 0 0
          0 0 0 0 0 0
          0 0 0 0 0 0
          0 0 0 0 0 0
          0 0 0 0 0 0
          0 0 0 0 0 0
          0 0 0 0 0 0
          0 0 0 0 0 0
          0 0 0 0 0 0
          0 0 0 0 0 0
          0 0 0 0 0 0
          0 0 0 0 0 0
          0 0 0 0 0 0
          0 0 0 0 0 0
          0 0 0 0 0 0
          0 0 0 0 0 0
          0 0 0 0 0 0
          0 0 0 0 0 0
          0 0 0 0 0 0
          0 0 0 0 0 0
          0 0 0 0 0 0
          0 0 0 0 0 0
          0 0 0 0 0 0
          0 0 0 0 0 0
          0 0 0 0 0 0
          0 0 0 0 0 0
          0 0 0 0 0 0
          0 0 0 0 0 0
          0 0 0 0 0 0
          0 0 0 0 0 0
          0 0 0 0 0 0
          0 0 0 0 0 0
          0 0 0 0 0 0
          0 0 0 0 0 0
          0 0 0 0 0 0
          0 0 0 0 0 0
          0 0 0 0 0 0
          0 0 0 0 0 0
          0 0 0 0 0 0
          0 0 0 0 0 0
          0 0 0 0 0 0
          0 0 0 0 0 0
          0 0 0 0 0 0
          0 0 0 0 0 0
          0 0 0 0 0 0
          0 0 0 0 0 0
          0 0 0 0 0 0
          0 0 0 0 0 0
          0 0 0 0 0 0
          0 0 0 0 0 0
          0 0 0 0 0 0
          0 0 0 0 0 0
          0 0 0 0 0 0
          0 0 0 0 0 0
          0 0 0 0 0 0
          0 0 0 0 0 0
          0 0 0 0 0 0
          0 0 0 0 0 0
          0 0 0 0 0 0
          0 0 0 0 0 0
          0 0 0 0 0 0
          0 0 0 0 0 0
          0 0 0 0 0 0
          0 0 0 0 0 0
          0 0 0 0 0 0
          0 0 0 0 0 0
          0 0 0 0 0 0
          0 0 0 0 0 0
          0 0 0 0 0 0
          0 0 0 0 0 0
          0 0 0 0 0 0
          0 0 0 0 0 0
          0 0 0 0 0 0
          0 0 0 0 0 0
          0 0 0 0 0 0
          0 0 0 0 0 0
          0 0 0 0 0 0
          0 0 0 0 0 0
          0 0 0 0 0 0
          0 0 0 0 0 0
          0 0 0 0 0 0
          0 0 0 0 0 0
          0 0 0 0 0 0
          0 0 0 0 0 0
          0 0 0 0 0 0
          0 0 0 0 0 0
          0 0 0 0 0 0
          0 0 0 0 0 0
          0 0 0 0 0 0
          0 0 0 0 0 0
          0 0 0 0 0 0
          0 0 0 0 0 0
          0 0 0 0 0 0
          0 0 0 0 0 0
          0 0
        </DataArray>
      </CellData>
      <Points>
        <DataArray type="Float64" Name="Points" NumberOfComponents="3" format="ascii" RangeMin="12870.158860779775" RangeMax="28185.84402244806">
          9200 9000 -31.449987411499023 18800 9000 -76.41971588134766
          9200 21000 5.599661350250244 18800 21000 -42.46478271484375
          14000 9000 -20.033695220947266 18800 15000 -86.55274200439453
          13996.642578125 15000.341796875 -21.105791091918945 9200 15000 13.118505477905273
          14000 21000 -20.394447326660156 16492.5390625 15049.29296875 -46.5322265625
          18800 18000 -76.60375213623047 16520.775390625 18154.515625 -43.86892318725586
          13955.1572265625 11872.6923828125 -16.342369079589844 11479.4853515625 11849.81640625 -29.013246536254883
          11600 9000 -29.676132202148438 16433.919921875 11952.037109375 -41.87016677856445
          16400 9000 -62.936279296875 18800 12000 -67.99758911132812