<?xml version="1.0"?>
<VTKFile type="UnstructuredGrid" version="1.0" byte_order="LittleEndian" header_type="UInt64">
  <UnstructuredGrid>
    <Piece NumberOfPoints="1089" NumberOfCells="2048">
      <PointData>
        <DataArray type="Float64" Name="Maechtigkeit" format="ascii" RangeMin="99.99996948242188" RangeMax="300.0000305175781">
          295.5111083984375 182.93228149414062 298.928466796875 100 296.945556640625 292.7315673828125
          162.29017639160156 100 100.63162994384766 282.8557434082031 297.2771301269531 170.24118041992188
          233.74234008789062 207.3976593017578 247.0474395751953 292.9627990722656 294.78887939453125 294.2867431640625
          136.8415985107422 124.89786529541016 107.9772720336914 190.7588653564453 186.30755615234375 148.19830322265625
          110.01913452148438 280.1168212890625 297.25079345703125 250.08311462402344 205.61004638671875 202.36070251464844
          189.8033905029297 229.36981201171875 149.69505310058594 207.28895568847656 299.6732482910156 296.1728515625
          289.600830078125 220.8506317138672 213.1180419921875 223.65484619140625 233.97293090820312 262.9096984863281
          272.513916015625 204.27902221679688 194.0353546142578 187.8885498046875 293.76318359375 295.8990173339844
          293.1869812011719 293.197021484375 296.57257080078125 295.14825439453125 293.8651428222656 297.8878479003906
          297.18377685546875 292.61724853515625 298.14990234375 268.60284423828125 108.02649688720703 127.40113067626953
          105.31331634521484 100.68284606933594 107.95086669921875 111.4177474975586 100.1730728149414 116.58028411865234
          106.09814453125 181.69927978515625 181.2391815185547 148.9967498779297 151.0147247314453 143.6682586669922
          210.36581420898438 117.67127227783203 100 125.18570709228516 124.65499877929688 151.03366088867188
          177.86436462402344 168.83230590820312 171.82289123535156 276.8295593261719 293.18707275390625 255.59251403808594
          296.4264221191406 295.78778076171875 296.5899658203125 214.0745849609375 249.74925231933594 259.71148681640625
          249.52427673339844 253.46978759765625 229.493408203125 196.709716796875 211.785888671875 215.12681579589844
          199.62295532226562 199.32388305664062 205.16644287109375 213.02561950683594 204.27886962890625 212.22743225097656
          225.407958984375 237.69049072265625 233.12844848632812 285.28875732421875 300 278.131103515625
          263.74462890625 208.68251037597656 230.32997131347656 298.018798828125 293.3040771484375 291.7276611328125
          298.4661865234375 296.2549133300781 198.03289794921875 190.5576171875 189.0769500732422 195.96221923828125
          294.79522705078125 297.65924072265625 298.3641357421875 209.56204223632812 204.95913696289062 175.37486267089844
          156.46182250976562 175.01593017578125 179.0362091064453 197.45352172851562 150.3677978515625 296.2344970703125
          293.6842956542969 293.9974060058594 194.58096313476562 199.90077209472656 295.2266540527344 290.50592041015625
          293.3951416015625 300 250.42730712890625 240.49513244628906 252.32772827148438 290.22955322265625
          295.93951416015625 267.66094970703125 291.14892578125 290.0646667480469 216.09927368164062 200.53448486328125
          202.29833984375 218.13209533691406 213.4674530029297 283.02484130859375 286.92364501953125 182.31973266601562
          173.7198486328125 172.3485107421875 217.4502716064453 226.1233673095703 298.9848937988281 296.3851623535156
          295.1474914550781 295.5325622558594 291.3460693359375 294.381591796875 296.3241271972656 299.7835693359375
          298.4855041503906 296.4429016113281 298.47808837890625 298.9317626953125 297.1722106933594 295.54681396484375
          297.3200988769531 292.40618896484375 296.7108154296875 291.1186218261719 292.3774108886719 293.2441711425781
          290.8412780761719 295.6268005371094 298.4662170410156 280.6221618652344 266.4336242675781 295.6800842285156
          296.2626953125 295.92291259765625 293.790771484375 295.50909423828125 200.32388305664062 227.89013671875
          249.71102905273438 241.3773956298828 278.7643127441406 294.9602966308594 284.7817687988281 299.9999694824219
          110.7072982788086 108.12813568115234 101.44035339355469 108.67269897460938 107.23847198486328 105.31724548339844
          117.7173843383789 115.01579284667969 137.05844116210938 101.81904602050781 102.14435577392578 104.9791030883789
          103.85303497314453 126.96082305908203 112.68132781982422 101.6279525756836 101.98799133300781 108.80854797363281
          103.3535385131836 106.75487518310547 102.02876281738281 101.25749206542969 110.55879974365234 104.07121276855469
          104.34900665283203 112.6260986328125 129.70205688476562 102.72409057617188 102.74867248535156 101.78540802001953
          200.25747680664062 179.40484619140625 210.36703491210938 198.87550354003906 185.00704956054688 183.93899536132812
          167.57875061035156 195.0501251220703 191.50050354003906 197.5011444091797 147.85678100585938 121.03836059570312
          118.9783935546875 173.48060607910156 176.68777465820312 172.8441162109375 175.86851501464844 233.23423767089844
          270.4411926269531 175.30967712402344 147.92820739746094 131.0382843017578 193.5028076171875 153.7462615966797
          109.92890167236328 100 109.0093002319336 121.90544891357422 141.40040588378906 130.8758087158203
          109.62785339355469 112.43968200683594 100.0728759765625 143.63824462890625 155.4073486328125 132.53094482421875
          131.96011352539062 136.5822296142578 134.09255981445312 149.25479125976562 121.81057739257812 124.19551849365234
          119.7836685180664 165.55746459960938 164.16650390625 164.1869354248047 179.05645751953125 187.21363830566406
          124.7430648803711 144.85354614257812 160.2679443359375 148.2074737548828 162.10775756835938 125.55896759033203
          157.7346954345703 181.5512237548828 141.32254028320312 159.07870483398438 178.56546020507812 184.0309295654297
          177.6815948486328 295.09844970703125 294.3345947265625 295.4605712890625 293.9358825683594 293.1272277832031
          293.6338195800781 295.5163269042969 291.8791809082031 290.68817138671875 286.1593933105469 275.85186767578125
          283.18212890625 265.8235168457031 280.8939208984375 268.9678649902344 296.71435546875 297.8505859375
          298.6505126953125 296.0433654785156 289.99285888671875 298.0546875 258.479248046875 275.8440856933594
          268.8247985839844 108.48009490966797 104.72816467285156 101.48224639892578 278.27276611328125 259.9714050292969
          104.41315460205078 105.0699691772461 109.09202575683594 117.86553192138672 112.53719329833984 110.8792724609375
          120.5912857055664 124.01162719726562 135.0204315185547 101.61051177978516 104.23986053466797 103.62921142578125
          103.17646789550781 105.77474212646484 300.0000305175781 297.9278869628906 211.499267578125 210.68661499023438
          209.06053161621094 110.16490173339844 116.68132019042969 116.888427734375 183.8111114501953 190.8558349609375
          185.05931091308594 103.1557846069336 100.55924224853516 99.99999237060547 172.21749877929688 165.9344940185547
          148.37953186035156 134.49234008789062 134.53631591796875 149.24435424804688 127.3228988647461 123.43310546875
          119.69080352783203 100.83631134033203 103.67739868164062 101.92545318603516 107.14947509765625 111.96444702148438
          102.64554595947266 100.6065444946289 101.82274627685547 139.59877014160156 157.3086700439453 146.9337158203125
          284.592041015625 277.79010009765625 275.1872863769531 132.77963256835938 127.58321380615234 129.85716247558594
          119.73334503173828 113.1214599609375 140.04824829101562 160.3738555908203 101.89241027832031 102.2783203125
          102.22647094726562 122.18822479248047 131.57470703125 128.17041015625 101.62991333007812 100
          99.99996948242188 156.6258544921875 148.9302215576172 156.39602661132812 296.1980895996094 296.7546691894531
          297.48931884765625 189.41477966308594 189.80934143066406 192.74273681640625 127.28254699707031 122.27362823486328
          125.21115112304688 145.7819366455078 149.89022827148438 103.54765319824219 103.28611755371094 111.1354751586914
          104.01154327392578 110.26242065429688 171.6417694091797 172.42933654785156 164.72695922851562 143.25758361816406
          148.87937927246094 133.7509002685547 107.7004165649414 107.67042541503906 106.52228546142578 186.61378479003906
          186.22720336914062 103.25835418701172 104.10476684570312 164.08164978027344 155.38775634765625 104.8231201171875
          182.19235229492188 182.53167724609375 177.97915649414062 115.2596206665039 108.7999038696289 294.58074951171875
          293.5758972167969 295.82122802734375 278.3536071777344 287.3988952636719 269.4681091308594 133.8486328125
          147.80311584472656 134.22872924804688 266.7269287109375 241.636474609375 255.27450561523438 210.91094970703125
          213.0092010498047 285.897216796875 291.51092529296875 297.1912841796875 259.09625244140625 242.50384521484375
          265.74359130859375 288.9039001464844 280.4476318359375 296.2488098144531 296.01593017578125 295.07861328125
          295.40924072265625 296.5839538574219 296.39111328125 296.7281494140625 204.2607421875 222.5269012451172
          192.13003540039062 296.1924133300781 295.0018005371094 294.85205078125 172.75193786621094 161.05763244628906
          161.41961669921875 212.79135131835938 215.55201721191406 215.5613555908203 253.98704528808594 272.49530029296875
          296.5928955078125 298.9365539550781 297.458251953125 237.37701416015625 245.0281219482422 219.8562469482422
          231.9774627685547 210.31301879882812 228.23727416992188 150.04644775390625 138.12179565429688 158.7759552001953
          297.3939514160156 296.85986328125 239.97059631347656 243.207763671875 230.29083251953125 195.54241943359375
          197.81312561035156 193.3823699951172 239.49484252929688 231.03585815429688 240.500244140625 139.2613983154297
          163.29937744140625 250.7169189453125 260.91204833984375 263.293701171875 118.9856185913086 117.00943756103516
          120.14521026611328 104.79080200195312 106.43234252929688 212.14468383789062 220.82981872558594 224.2716827392578
          203.47406005859375 205.02476501464844 194.3621826171875 104.62277221679688 109.63380432128906 105.03598022460938
          204.23855590820312 200.1715087890625 206.66236877441406 130.93704223632812 123.55438995361328 134.0761260986328
          202.8865966796875 202.60665893554688 205.7999267578125 135.14141845703125 202.6179962158203 204.09303283691406
          201.8777618408203 199.662353515625 195.53988647460938 195.239013671875 208.3573455810547 205.64222717285156
          209.42050170898438 212.2564239501953 216.04637145996094 217.15650939941406 185.46762084960938 183.6510772705078
          208.06866455078125 208.63961791992188 203.6778564453125 291.5750427246094 291.7764892578125 292.58673095703125
          235.36712646484375 242.89968872070312 239.55487060546875 290.508544921875 290.9998779296875 290.5771179199219
          229.2769012451172 226.74278259277344 223.72792053222656 230.59861755371094 225.3157196044922 231.39794921875
          109.71672058105469 105.18669891357422 105.13955688476562 290.5009765625 300 288.8869323730469
          282.3757629394531 271.1725158691406 291.9588317871094 292.91650390625 299.2272033691406 134.17874145507812
          151.05018615722656 218.4142303466797 188.0395965576172 199.16940307617188 247.84201049804688 258.67218017578125
          271.9599304199219 238.25070190429688 256.241943359375 230.21527099609375 295.83929443359375 298.82952880859375
          298.0740661621094 295.10028076171875 292.99102783203125 171.60740661621094 176.7305908203125 164.7515106201172
          296.75390625 297.4737854003906 202.75413513183594 198.59246826171875 201.8558807373047 295.940185546875
          297.2748718261719 294.1170654296875 298.4661865234375 299.510009765625 298.95806884765625 297.4006042480469
          298.8274841308594 297.24365234375 293.4517517089844 294.205322265625 293.5069274902344 295.49273681640625
          296.7157897949219 294.003662109375 295.3193054199219 287.7044982910156 293.3721923828125 281.5115661621094
          288.2883605957031 276.1820373535156 171.09234619140625 166.2306671142578 176.95904541015625 195.55039978027344
          194.72438049316406 195.6710205078125 190.02796936035156 199.13217163085938 200.46629333496094 222.0652618408203
          225.43731689453125 193.3070068359375 188.2324676513672 190.7599334716797 198.32395935058594 201.24034118652344
          194.62973022460938 189.5338897705078 298.98516845703125 297.2023010253906 299.6676940917969 298.8016357421875
          300 300 296.95880126953125 296.99542236328125 295.8497314453125 296.0597839355469
          292.9598388671875 294.2435302734375 207.44322204589844 206.07183837890625 298.4405212402344 300
          298.2454528808594 205.86476135253906 203.81146240234375 207.5511016845703 208.59478759765625 164.990478515625
          159.41546630859375 166.06040954589844 175.38941955566406 188.89129638671875 190.7962188720703 163.31155395507812
          161.67689514160156 152.96444702148438 294.17498779296875 294.9029235839844 170.8982696533203 182.44775390625
          163.56939697265625 148.25067138671875 161.31085205078125 186.2542724609375 202.73464965820312 213.52377319335938
          273.7325744628906 286.3390808105469 281.65631103515625 294.46221923828125 294.2443542480469 294.525634765625
          258.7362060546875 267.6228942871094 295.0876159667969 294.2041015625 296.6190490722656 294.51910400390625
          294.7315673828125 293.6297912597656 230.0081329345703 223.27626037597656 195.7711639404297 206.86032104492188
          207.6041717529297 211.9044189453125 176.17349243164062 192.6256103515625 201.6711883544922 203.90438842773438
          199.81436157226562 199.00843811035156 196.8964385986328 190.9357147216797 194.64297485351562 164.07862854003906
          156.77833557128906 293.1373596191406 294.48590087890625 291.37872314453125 292.57110595703125 289.3294372558594
          294.3547668457031 295.3820495605469 139.3997802734375 143.88954162597656 146.22540283203125 297.6190490722656
          295.3329772949219 298.85162353515625 299.0682067871094 300 262.03680419921875 256.3273010253906
          274.66033935546875 295.7132263183594 291.3044738769531 294.0840148925781 295.81689453125 246.7117919921875
          243.13633728027344 249.79324340820312 109.85557556152344 107.48753356933594 251.0400390625 256.3463439941406
          257.081787109375 244.76583862304688 242.58363342285156 237.43711853027344 294.1333312988281 286.0635986328125
          297.0302734375 296.5545959472656 296.7987060546875 295.31573486328125 295.1610412597656 249.8420867919922
          258.16571044921875 265.29931640625 259.17266845703125 270.0315246582031 105.52154541015625 110.02801513671875
          277.6012268066406 182.72332763671875 182.31643676757812 284.86334228515625 267.5054931640625 300
          297.5341491699219 100 299.7375183105469 101.09777069091797 103.3018569946289 212.7501220703125
          227.4066619873047 180.76007080078125 243.08897399902344 293.1416015625 294.36181640625 290.5901794433594
          291.42767333984375 290.6427307128906 161.39723205566406 291.1429748535156 291.30694580078125 291.7403869628906
          292.60089111328125 116.73844146728516 113.98359680175781 201.23394775390625 191.056884765625 189.98635864257812
          210.6912384033203 213.84640502929688 218.79721069335938 209.10784912109375 214.2661895751953 208.42141723632812
          298.62054443359375 291.4433898925781 214.7244873046875 216.37255859375 219.3471221923828 297.10968017578125
          297.55682373046875 221.3765411376953 218.56781005859375 221.4214324951172 120.5326156616211 291.8335876464844
          291.8335266113281 272.5933532714844 114.89557647705078 115.67228698730469 170.53692626953125 167.34259033203125
          165.91983032226562 176.6199951171875 180.05101013183594 183.83978271484375 176.93321228027344 185.17535400390625
          182.58566284179688 194.12237548828125 189.32217407226562 297.2400207519531 296.4509582519531 188.6368865966797
          137.58578491210938 144.4065704345703 139.97225952148438 220.12705993652344 124.16948699951172 213.73675537109375
          210.38088989257812 236.8079071044922 233.3888397216797 229.51478576660156 295.6961669921875 295.9728088378906
          219.1368865966797 221.7902374267578 214.709716796875 157.08258056640625 159.5959930419922 167.05099487304688
          295.539306640625 295.07476806640625 294.7547302246094 296.4323425292969 297.7559814453125 296.28533935546875
          291.9151611328125 294.90234375 292.01983642578125 246.07740783691406 180.1414337158203 173.2974090576172
          295.0674133300781 296.662353515625 298.0523376464844 297.0757751464844 130.16275024414062 137.73240661621094
          297.59088134765625 295.890625 298.73394775390625 297.8332824707031 297.62664794921875 298.1052551269531
          297.8774719238281 298.3813781738281 297.11956787109375 296.9733581542969 296.2707824707031 295.2557373046875
          107.29713439941406 106.07865905761719 108.65897369384766 298.2288818359375 296.8279724121094 298.0274658203125
          298.1655578613281 297.23504638671875 294.5369873046875 292.3244323730469 294.8638000488281 294.8170471191406
          295.5858459472656 292.8052673339844 174.16282653808594 184.3185272216797 186.8115692138672 134.94146728515625
          128.21731567382812 291.54022216796875 125.7258071899414 292.7998352050781 294.7066955566406 293.357177734375
          294.3988037109375 293.32879638671875 292.2475891113281 291.8180847167969 108.39655303955078 113.7788314819336
          115.89608764648438 295.7135009765625 292.5924377441406 292.42596435546875 295.9289245605469 294.1902770996094
          220.73582458496094 208.87989807128906 249.56268310546875 296.91485595703125 296.1361389160156 297.4710693359375
          289.9576416015625 293.3222961425781 149.68641662597656 152.88861083984375 296.982666015625 294.0753173828125
          235.21090698242188 220.0148162841797 214.33355712890625 183.17539978027344 196.31033325195312 204.38604736328125
          297.54522705078125 230.97052001953125 240.3264923095703 116.27719116210938 239.78439331054688 248.73709106445312
          123.71075439453125 177.41261291503906 185.65663146972656 224.63661193847656 166.5450439453125 174.24209594726562
          289.85845947265625 288.6005859375 284.6152648925781 109.32478332519531 178.45899963378906 166.7696075439453
          101.94537353515625 100.47457122802734 103.76549530029297 141.67579650878906 142.42996215820312 107.0259780883789
          108.43730163574219 114.91873168945312 122.56240844726562 149.8975372314453 124.56293487548828 119.47789764404297
          132.61570739746094 125.97295379638672 135.5623016357422 110.48624420166016 152.1998291015625 163.28335571289062
          100 136.888427734375 136.39511108398438 125.71048736572266 106.11943817138672 103.50899505615234
          122.55809020996094 110.53335571289062 105.70692443847656 107.31075286865234 102.14613342285156 104.31951141357422
          107.18533325195312 118.57090759277344 138.28089904785156 129.7511444091797 102.97460174560547 103.83028411865234
          100.07880401611328 105.08683013916016 107.14391326904297 110.74650573730469 106.34063720703125 104.29731750488281
          101.70712280273438 116.4627456665039 112.76528930664062 100.00000762939453 106.47779083251953 101.32762145996094
          158.06298828125 114.1148681640625 106.7779312133789 102.2568130493164 107.16676330566406 105.7464828491211
          109.45896911621094 100.63949584960938 104.509033203125 124.67121124267578 102.49293518066406 101.32775115966797
          101.2249755859375 121.94957733154297 112.53923034667969 191.2764892578125 179.97450256347656 200.3461456298828
          191.44601440429688 191.7546844482422 180.5763397216797 208.14083862304688 154.05384826660156 149.36285400390625
          191.89862060546875 186.600830078125 192.0846710205078 183.15013122558594 191.95001220703125 197.71527099609375
          203.5345458984375 205.5731658935547 199.82261657714844 169.46343994140625 163.25559997558594 175.5221710205078
          182.45960998535156 199.56285095214844 188.83071899414062 187.41024780273438 192.978759765625 200.8717041015625
          196.47705078125 191.44419860839844 190.18408203125 136.33477783203125 121.00343322753906 106.8707275390625
          182.95501708984375 183.476806640625 127.2080078125 123.0260009765625 174.70932006835938 163.08470153808594
          165.59518432617188 174.02633666992188 183.04942321777344 182.49351501464844 118.69078063964844 273.33880615234375
          289.8812561035156 250.86904907226562 242.5152587890625 124.78823852539062 122.28022766113281 177.40420532226562
          179.09957885742188 200.64898681640625 222.86656188964844 185.25762939453125 214.36009216308594 180.4979705810547
          175.13955688476562 175.6701202392578 100.00000762939453 104.23931121826172 116.292724609375 145.97183227539062
          139.4781494140625 100.00000762939453 113.96024322509766 158.4691162109375 140.93923950195312 145.7208251953125
          132.9613494873047 153.70083618164062 161.15293884277344 159.511962890625 158.23773193359375 171.3889617919922
          171.32005310058594 157.27810668945312 185.889404296875 184.3407745361328 178.16346740722656 121.46757507324219
          167.0775909423828 158.6248779296875 152.1884765625 148.4285125732422 134.7636260986328 136.55026245117188
          116.94673156738281 149.10772705078125 132.22227478027344 141.660888671875 162.3381805419922 171.81968688964844
          170.81236267089844 171.62062072753906 182.20193481445312
        </DataArray>
      </PointData>
      <CellData>
        <DataArray type="Int32" Name="MaterialIDs" format="ascii" RangeMin="0" RangeMax="0">
          0 0 0 0 0 0
          0 0 0 0 0 0
          0 0 0 0 0 0
          0 0 0 0 0 0
          0 0 0 0 0 0
          0 0 0 0 0 0
          0 0 0 0 0 0
          0 0 0 0 0 0
          0 0 0 0 0 0
          0 0 0 0 0 0
          0 0 0 0 0 0
          0 0 0 0 0 0
          0 0 0 0 0 0
          0 0 0 0 0 0
          0 0 0 0 0 0
          0 0 0 0 0 0
          0 0 0 0 0 0
          0 0 0 0 0 0
          0 0 0 0 0 0
          0 0 0 0 0 0
          0 0 0 0 0 0
          0 0 0 0 0 0
          0 0 0 0 0 0
          0 0 0 0 0 0
          0 0 0 0 0 0
          0 0 0 0 0 0
          0 0 0 0 0 0
          0 0 0 0 0 0
          0 0 0 0 0 0
          0 0 0 0 0 0
          0 0 0 0 0 0
          0 0 0 0 0 0
          0 0 0 0 0 0
          0 0 0 0 0 0
          0 0 0 0 0 0
          0 0 0 0 0 0
          0 0 0 0 0 0
          0 0 0 0 0 0
          0 0 0 0 0 0
          0 0 0 0 0 0
          0 0 0 0 0 0
          0 0 0 0 0 0
          0 0 0 0 0 0
          0 0 0 0 0 0
          0 0 0 0 0 0
          0 0 0 0 0 0
          0 0 0 0 0 0
          0 0 0 0 0 0
          0 0 0 0 0 0
          0 0 0 0 0 0
          0 0 0 0 0 0
          0 0 0 0 0 0
          0 0 0 0 0 0
          0 0 0 0 0 0
          0 0 0 0 0 0
          0 0 0 0 0 0
          0 0 0 0 0 0
          0 0 0 0 0 0
          0 0 0 0 0 0
          0 0 0 0 0 0
          0 0 0 0 0 0
          0 0 0 0 0 0
          0 0 0 0 0 0
          0 0 0 0 0 0
          0 0 0 0 0 0
          0 0 0 0 0 0
          0 0 0 0 0 0
          0 0 0 0 0 0
          0 0 0 0 0 0
          0 0 0 0 0 0
          0 0 0 0 0 0
          0 0 0 0 0 0
          0 0 0 0 0 0
          0 0 0 0 0 0
          0 0 0 0 0 0
          0 0 0 0 0 0
          0 0 0 0 0 0
          0 0 0 0 0 0
          0 0 0 0 0 0
          0 0 0 0 0 0
          0 0 0 0 0 0
          0 0 0 0 0 0
          0 0 0 0 0 0
          0 0 0 0 0 0
          0 0 0 0 0 0
          0 0 0 0 0 0
          0 0 0 0 0 0
          0 0 0 0 0 0
          0 0 0 0 0 0
          0 0 0 0 0 0
          0 0 0 0 0 0
          0 0 0 0 0 0
          0 0 0 0 0 0
          0 0 0 0 0 0
          0 0 0 0 0 0
          0 0 0 0 0 0
          0 0 0 0 0 0
          0 0 0 0 0 0
          0 0 0 0 0 0
          0 0 0 0 0 0
          0 0 0 0 0 0
          0 0 0 0 0 0
          0 0 0 0 0 0
          0 0 0 0 0 0
          0 0 0 0 0 0
          0 0 0 0 0 0
          0 0 0 0 0 0
          0 0 0 0 0 0
          0 0 0 0 0 0
          0 0 0 0 0 0
          0 0 0 0 0 0
          0 0 0 0 0 0
          0 0 0 0 0 0
          0 0 0 0 0 0
          0 0 0 0 0 0
          0 0 0 0 0 0
          0 0 0 0 0 0
          0 0 0 0 0 0
          0 0 0 0 0 0
          0 0 0 0 0 0
          0 0 0 0 0 0
          0 0 0 0 0 0
          0 0 0 0 0 0
          0 0 0 0 0 0
          0 0 0 0 0 0
          0 0 0 0 0 0
          0 0 0 0 0 0
          0 0 0 0 0 0
          0 0 0 0 0 0
          0 0 0 0 0 0
          0 0 0 0 0 0
          0 0 0 0 0 0
          0 0 0 0 0 0
          0 0 0 0 0 0
          0 0 0 0 0 0
          0 0 0 0 0 0
          0 0 0 0 0 0
          0 0 0 0 0 0
          0 0 0 0 0 0
          0 0 0 0 0 0
          0 0 0 0 0 0
          0 0 0 0 0 0
          0 0 0 0 0 0
          0 0 0 0 0 0
          0 0 0 0 0 0
          0 0 0 0 0 0
          0 0 0 0 0 0
          0 0 0 0 0 0
          0 0 0 0 0 0
          0 0 0 0 0 0
          0 0 0 0 0 0
          0 0 0 0 0 0
          0 0 0 0 0 0
          0 0 0 0 0 0
          0 0 0 0 0 0
          0 0 0 0 0 0
          0 0 0 0 0 0
          0 0 0 0 0 0
          0 0 0 0 0 0
          0 0 0 0 0 0
          0 0 0 0 0 0
          0 0 0 0 0 0
          0 0 0 0 0 0
          0 0 0 0 0 0
          0 0 0 0 0 0
          0 0 0 0 0 0
          0 0 0 0 0 0
          0 0 0 0 0 0
          0 0 0 0 0 0
          0 0 0 0 0 0
          0 0 0 0 0 0
          0 0 0 0 0 0
          0 0 0 0 0 0
          0 0 0 0 0 0
          0 0 0 0 0 0
          0 0 0 0 0 0
          0 0 0 0 0 0
          0 0 0 0 0 0
          0 0 0 0 0 0
          0 0 0 0 0 0
          0 0 0 0 0 0
          0 0 0 0 0 0
          0 0 0 0 0 0
          0 0 0 0 0 0
          0 0 0 0 0 0
          0 0 0 0 0 0
          0 0 0 0 0 0
          0 0 0 0 0 0
          0 0 0 0 0 0
          0 0 0 0 0 0
          0 0 0 0 0 0
          0 0 0 0 0 0
          0 0 0 0 0 0
          0 0 0 0 0 0
          0 0 0 0 0 0
          0 0 0 0 0 0
          0 0 0 0 0 0
          0 0 0 0 0 0
          0 0 0 0 0 0
          0 0 0 0 0 0
          0 0 0 0 0 0
          0 0 0 0 0 0
          0 0 0 0 0 0
          0 0 0 0 0 0
          0 0 0 0 0 0
          0 0 0 0 0 0
          0 0 0 0 0 0
          0 0 0 0 0 0
          0 0 0 0 0 0
          0 0 0 0 0 0
          0 0 0 0 0 0
          0 0 0 0 0 0
          0 0 0 0 0 0
          0 0 0 0 0 0
          0 0 0 0 0 0
          0 0 0 0 0 0
          0 0 0 0 0 0
          0 0 0 0 0 0
          0 0 0 0 0 0
          0 0 0 0 0 0
          0 0 0 0 0 0
          0 0 0 0 0 0
          0 0 0 0 0 0
          0 0 0 0 0 0
          0 0 0 0 0 0
          0 0 0 0 0 0
          0 0 0 0 0 0
          0 0 0 0 0 0
          0 0 0 0 0 0
          0 0 0 0 0 0
          0 0 0 0 0 0
          0 0 0 0 0 0
          0 0 0 0 0 0
          0 0 0 0 0 0
          0 0 0 0 0 0
          0 0 0 0 0 0
          0 0 0 0 0 0
          0 0 0 0 0 0
          0 0 0 0 0 0
          0 0 0 0 0 0
          0 0 0 0 0 0
          0 0 0 0 0 0
          0 0 0 0 0 0
          0 0 0 0 0 0
          0 0 0 0 0 0
          0 0 0 0 0 0
          0 0 0 0 0 0
          0 0 0 0 0 0
          0 0 0 0 0 0
          0 0 0 0 0 0
          0 0 0 0 0 0
          0 0 0 0 0 0
          0 0 0 0 0 0
          0 0 0 0 0 0
          0 0 0 0 0 0
          0 0 0 0 0 0
          0 0 0 0 0 0
          0 0 0 0 0 0
          0 0 0 0 0 0
          0 0 0 0 0 0
          0 0 0 0 0 0
          0 0 0 0 0 0
          0 0 0 0 0 0
          0 0 0 0 0 0
          0 0 0 0 0 0
          0 0 0 0 0 0
          0 0 0 0 0 0
          0 0 0 0 0 0
          0 0 0 0 0 0
          0 0 0 0 0 0
          0 0 0 0 0 0
          0 0 0 0 0 0
          0 0 0 0 0 0
          0 0 0 0 0 0
          0 0 0 0 0 0
          0 0 0 0 0 0
          0 0 0 0 0 0
          0 0 0 0 0 0
          0 0 0 0 0 0
          0 0 0 0 0 0
          0 0 0 0 0 0
          0 0 0 0 0 0
          0 0 0 0 0 0
          0 0 0 0 0 0
          0 0 0 0 0 0
          0 0 0 0 0 0
          0 0 0 0 0 0
          0 0 0 0 0 0
          0 0 0 0 0 0
          0 0 0 0 0 0
          0 0 0 0 0 0
          0 0 0 0 0 0
          0 0 0 0 0 0
          0 0 0 0 0 0
          0 0 0 0 0 0
          0 0 0 0 0 0
          0 0 0 0 0 0
          0 0 0 0 0 0
          0 0 0 0 0 0
          0 0 0 0 0 0
          0 0 0 0 0 0
          0 0 0 0 0 0
          0 0 0 0 0 0
          0 0 0 0 0 0
          0 0 0 0 0 0
          0 0 0 0 0 0
          0 0 0 0 0 0
          0 0 0 0 0 0
          0 0 0 0 0 0
          0 0 0 0 0 0
          0 0 0 0 0 0
          0 0 0 0 0 0
          0 0 0 0 0 0
          0 0 0 0 0 0
          0 0 0 0 0 0
          0 0 0 0 0 0
          0 0 0 0 0 0
          0 0 0 0 0 0
          0 0 0 0 0 0
          0 0 0 0 0 0
          0 0 0 0 0 0
          0 0 0 0 0 0
          0 0 0 0 0 0
          0 0 0 0 0 0
          0 0 0 0 0 0
          0 0 0 0 0 0
          0 0 0 0 0 0
          0 0 0 0 0 0
          0 0 0 0 0 0
          0 0 0 0 0 0
          0 0 0 0 0 0
          0 0 0 0 0 0
          0 0 0 0 0 0
          0 0 0 0 0 0
          0 0 0 0 0 0
          0 0 0 0 0 0
          0 0 0 0 0 0
          0 0 0 0 0 0
          0 0 0 0 0 0
          0 0 0 0 0 0
          0 0 0 0 0 0
          0 0
        </DataArray>
      </CellData>
      <Points>
        <DataArray type="Float64" Name="Points" NumberOfComponents="3" format="ascii" RangeMin="12871.90583226772" RangeMax="28187.879475952286">
          18800 9000 -371.9308166503906 9200 9000 -214.38226318359375
          18800 21000 -341.39324951171875 9200 21000 -94.40033721923828