<?xml version="1.0"?>
<VTKFile type="UnstructuredGrid" version="1.0" byte_order="LittleEndian" header_type="UInt64">
  <UnstructuredGrid>
    <Piece NumberOfPoints="1089" NumberOfCells="2048">
      <PointData>
        <DataArray type="Float64" Name="Maechtigkeit" format="ascii" RangeMin="9.999992370605469" RangeMax="50.00003433227539">
          47.316925048828125 36.856719970703125 37.10980224609375 18.774383544921875 37.513824462890625 46.138092041015625
          35.25740432739258 9.999992370605469 19.81830596923828 38.45105743408203 50 35.335472106933594
          36.158477783203125 35.00675582885742 34.76446533203125 49.699737548828125 44.4111328125 46.696441650390625
          32.95580291748047 30.477813720703125 18.23541259765625 35.24025344848633 36.759002685546875 35.35625457763672
          35.80268859863281 35.11487579345703 34.75510025024414 47.78656005859375 34.71513366699219 35.19259262084961
          34.99195098876953 25.293121337890625 10 31.012056350708008 43.17950439453125 29.3343505859375
          35.48844909667969 36.26182556152344 50 47.559295654296875 34.25864791870117 35.419891357421875
          34.03289794921875 35.59632110595703 34.800174713134766 35.039913177490234 33.47260665893555 36.007240295410156
          34.928707122802734 49.99996566772461 48.522125244140625 48.6541748046875 48.03947067260742 50
          49.913936614990234 49.576446533203125 47.31119155883789 50 41.65462112426758 48.80391311645508
          35.2562255859375 34.557254791259766 34.17997741699219 26.96851348876953 34.65679931640625 16.60883331298828
          21.85988998413086 28.79728126525879 10.466087341308594 36.691864013671875 34.802433013916016 34.421424865722656
          34.21107482910156 35.343894958496094 35.543670654296875 34.61029815673828 24.4556884765625 36.024078369140625
          35.4124870300293 33.793548583984375 35.124935150146484 49.688167572021484 48.662757873535156 44.946685791015625
          38.981143951416016 36.33092498779297 42.71114730834961 49.949623107910156 48.84173583984375 47.814788818359375
          35.1163444519043 36.25835418701172 36.251426696777344 41.639854431152344 49.41927719116211 44.153682708740234
          34.30216598510742 32.44926834106445 34.170780181884766 34.608131408691406 34.800148010253906 34.907814025878906
          34.81565475463867 33.433563232421875 36.18049240112305 34.997825622558594 34.848575592041016 34.859657287597656
          34.60401916503906 34.579864501953125 30.72300148010254 32.31051254272461 35.12434768676758 34.89081573486328
          34.98896789550781 34.68550109863281 35.013607025146484 36.41044616699219 35.59083557128906 35.90170669555664
          36.14820861816406 35.55965805053711 32.78271484375 37.39826583862305 36.01728057861328 35.24382400512695
          35.32344436645508 36.150978088378906 36.467002868652344 36.457759857177734 35.001487731933594 36.04316711425781
          34.69084930419922 34.986427307128906 33.88077926635742 41.301055908203125 32.08306884765625 34.467037200927734
          34.54313278198242 20.88700294494629 10.589134216308594 25.6862850189209 34.72484588623047 34.54325485229492
          28.064006805419922 33.94700241088867 31.464162826538086 19.034597396850586 20.643266677856445 13.777244567871094
          49.91653060913086 47.533599853515625 49.15049743652344 34.78155517578125 47.963470458984375 35.98713684082031
          34.82395935058594 36.04252624511719 49.550758361816406 49.14067840576172 45.84417724609375 50.00000762939453
          49.47003173828125 49.45293045043945 46.11932373046875 35.012939453125 34.709877014160156 35.42870330810547
          34.374088287353516 35.209808349609375 49.85563278198242 48.17498779296875 49.39514923095703 48.88542175292969
          49.33618927001953 47.84121322631836 49.448760986328125 48.58616638183594 48.59368896484375 49.22683334350586
          42.74696731567383 46.452239990234375 49.96147155761719 48.178466796875 49.05244064331055 49.9999885559082
          49.00764465332031 49.684017181396484 48.09690856933594 49.674537658691406 49.09000015258789 39.82526397705078
          44.74651336669922 49.102699279785156 37.210628509521484 35.5261344909668 50.00001907348633 49.304988861083984
          42.98422622680664 49.9999885559082 49.999961853027344 34.458255767822266 34.44279098510742 34.664100646972656
          34.89834213256836 35.05290603637695 35.40028381347656 34.32415771484375 34.69265365600586 33.68579864501953
          35.542049407958984 40.51704406738281 37.625877380371094 46.542911529541016 25.01711082458496 26.689559936523438
          15.617042541503906 23.729135513305664 18.76019287109375 23.246349334716797 29.325441360473633 28.552997589111328
          36.720458984375 18.438684463500977 24.524688720703125 10 16.606081008911133 18.455474853515625
          22.192991256713867 22.30233383178711 28.424062728881836 30.81734848022461 27.61884117126465 25.684080123901367
          26.10904312133789 34.784793853759766 36.28352355957031 34.304378509521484 35.182289123535156 37.16297912597656
          34.763545989990234 34.77016830444336 34.88288497924805 35.24859619140625 34.77599334716797 32.87107467651367
          31.025720596313477 30.10527801513672 33.232234954833984 35.666229248046875 33.16745376586914 34.664981842041016
          31.810380935668945 32.55706787109375 35.174190521240234 37.621612548828125 35.773048400878906 32.93724060058594
          35.50895690917969 30.76966667175293 14.99334716796875 28.39577293395996 35.48576354980469 36.18233108520508
          35.31855010986328 32.77388000488281 34.38949203491211 31.239273071289062 34.86237335205078 35.69145965576172
          34.936927795410156 34.65271759033203 35.15761184692383 35.32941818237305 35.237770080566406 35.75518035888672
          34.29167938232422 34.12233352661133 32.77199172973633 36.12670135498047 34.843448638916016 34.2040901184082
          36.21466827392578 36.00969696044922 35.585693359375 33.83354187011719 33.053733825683594 34.9967041015625
          33.97883224487305 39.04522705078125 37.13455581665039 40.19334030151367 35.57084655761719 34.32198715209961
          35.4505729675293 42.22798156738281 43.72058868408203 45.98108673095703 46.970924377441406 48.060890197753906
          49.05757141113281 48.5153923034668 48.1405143737793 48.92422866821289 50 49.07014846801758
          49.58992004394531 49.99999237060547 49.7933235168457 49.999977111816406 48.413719177246094 45.9107666015625
          47.47572326660156 49.714439392089844 49.932125091552734 49.99996566772461 47.073638916015625 36.15605163574219
          35.66771697998047 40.43682861328125 43.308719635009766 45.181304931640625 36.07120895385742 36.0871696472168
          36.0361442565918 49.22368240356445 49.695343017578125 49.85861587524414 48.90373611450195 48.71087646484375
          48.51512908935547 46.93321228027344 43.5592041015625 35.51459503173828 36.16593551635742 49.52074432373047
          49.633052825927734 38.901458740234375 36.85237503051758 40.415863037109375 31.52501678466797 32.71052932739258
          32.646827697753906 36.09722137451172 35.82960510253906 36.23467254638672 21.465076446533203 15.932907104492188
          20.918394088745117 34.8099250793457 34.735355377197266 34.8109016418457 50.00003433227539 49.9571533203125
          49.20417022705078 48.31671142578125 50.00000762939453 49.77260971069336 49.609825134277344 49.841434478759766
          49.92722702026367 50.0000114440918 40.8488655090332 45.42366409301758 34.51714324951172 34.516849517822266
          34.38394546508789 48.168209075927734 48.75575256347656 49.27907180786133 35.5386962890625 35.47146987915039
          36.165531158447266 21.167715072631836 19.0616455078125 21.034526824951172 49.88369369506836 49.99999237060547
          50.00001907348633 48.5124397277832 47.003753662109375 48.10847854614258 49.88629913330078 49.8582878112793
          49.22325134277344 48.44921875 49.48275375366211 35.10529708862305 35.480079650878906 33.92592239379883
          49.84916305541992 49.464195251464844 48.457115173339844 50.00001907348633 50 49.999996185302734
          34.877899169921875 34.934906005859375 34.975830078125 49.5679817199707 49.41877746582031 49.46830368041992
          50.0000114440918 49.855743408203125 33.63022232055664 33.2752799987793 34.78042221069336 48.54477310180664
          49.0009880065918 38.9813346862793 36.59296798706055 34.85622024536133 35.005611419677734 34.93555450439453
          49.999996185302734 35.66891860961914 35.6429557800293 35.68757629394531 47.7039794921875 49.41279983520508
          49.337890625 49.58647537231445 33.38462448120117 33.904296875 34.43318176269531 40.848182678222656
          38.555538177490234 34.51423263549805 34.715824127197266 34.7109375 48.7060546875 49.49730682373047
          33.36211395263672 33.80552673339844 35.05744552612305 34.589927673339844 34.71471405029297 35.56985855102539
          49.47345733642578 49.63172149658203 48.18585968017578 47.524658203125 37.40232849121094 36.000343322753906
          49.75983810424805 49.96856689453125 49.149009704589844 42.70207977294922 45.18878173828125 39.41803741455078
          50.00000762939453 50 30.94139862060547 30.068008422851562 30.482980728149414 48.65962219238281
          48.065086364746094 34.81418228149414 35.33892059326172 34.907405853271484 44.6109733581543 48.049156188964844
          46.65522003173828 48.566307067871094 47.938140869140625 47.46240234375 36.18016815185547 36.29100799560547
          48.821624755859375 35.79364013671875 35.64203643798828 35.04353332519531 35.768028259277344 35.18205261230469
          35.80839920043945 47.16370391845703 46.10257339477539 43.48573303222656 47.23799514770508 49.34322738647461
          47.743568420410156 42.85533142089844 39.428688049316406 38.69597625732422 46.383140563964844 49.28007888793945
          48.77091598510742 49.35125732421875 32.93384552001953 34.563720703125 22.276081085205078 19.518564224243164
          42.21080017089844 45.30131912231445 46.192649841308594 20.027223587036133 25.284311294555664 23.81723976135254
          34.83958435058594 34.918190002441406 21.532516479492188 27.91847801208496 50.00001525878906 49.998741149902344
          49.999977111816406 34.771183013916016 34.64409637451172 34.70429611206055 34.71189498901367 34.77199935913086
          18.318439483642578 18.321378707885742 21.313779830932617 34.869056701660156 34.374755859375 22.58847999572754
          11.249313354492188 20.623554229736328 35.064605712890625 35.756343841552734 35.12362289428711 49.2125244140625
          48.25082778930664 47.877891540527344 34.33559799194336 34.516563415527344 33.62548828125 33.50619125366211
          33.1630973815918 34.00035858154297 34.85566711425781 34.957115173339844 34.32792282104492 34.41499328613281
          34.369140625 37.83466339111328 36.875240325927734 34.830039978027344 35.0118522644043 15.637028694152832
          10 14.264089584350586 34.854461669921875 34.97481918334961 34.83089828491211 49.535423278808594
          48.080814361572266 16.880361557006836 14.678678512573242 13.851318359375 34.58176803588867 34.648643493652344
          34.6318359375 26.824569702148438 25.369630813598633 27.628746032714844 34.63773727416992 34.448089599609375
          34.65376281738281 35.367855072021484 35.503257751464844 36.16539001464844 34.67683029174805 35.04163360595703
          49.863765716552734 32.477783203125 34.00592803955078 35.026241302490234 34.780921936035156 34.96162414550781
          17.610824584960938 19.04547119140625 10.1568603515625 35.002647399902344 34.91875457763672 34.982933044433594
          35.26525115966797 34.98610305786133 34.96277618408203 35.08500671386719 35.02513885498047 35.117488861083984
          34.72135543823242 36.01286315917969 35.31202697753906 34.953025817871094 35.03173828125 34.757747650146484
          34.746681213378906 35.01939010620117 35.04258346557617 34.93926239013672 35.56985855102539 35.79310989379883
          36.78584289550781 26.12700080871582 25.298980712890625 23.576169967651367 35.291282653808594 35.89453125
          35.076541900634766 23.529495239257812 21.364103317260742 34.7946891784668 34.498748779296875 34.364078521728516
          35.34989929199219 35.47962951660156 28.006973266601562 24.745285034179688 35.634422302246094 36.109046936035156
          35.8990478515625 34.92995071411133 35.281578063964844 35.178245544433594 34.36960983276367 34.28232192993164
          32.751121520996094 33.40753173828125 34.80474853515625 36.14231491088867 36.2727165222168 35.9305534362793
          35.243385314941406 34.819175720214844 35.9869384765625 35.8887939453125 35.18288040161133 35.539913177490234
          49.934818267822266 34.813846588134766 16.35597038269043 35.1631965637207 35.365638732910156 24.800914764404297
          26.302255630493164 25.525785446166992 34.152862548828125 33.742431640625 35.047454833984375 33.22486877441406
          35.89281463623047 33.65105056762695 34.699771881103516 33.84263610839844 34.66051483154297 37.0507926940918
          31.14984130859375 30.139986038208008 27.185955047607422 29.744369506835938 35.33699035644531 34.93503189086914
          35.6053352355957 35.7196159362793 29.648231506347656 33.398128509521484 33.90945053100586 35.413246154785156
          35.09748840332031 20.897123336791992 25.669601440429688 25.366456985473633 35.816200256347656 36.19528579711914
          34.70489501953125 34.70891571044922 34.55018997192383 34.668758392333984 36.6158447265625 36.020751953125
          36.641700744628906 34.091163635253906 33.182029724121094 36.15763854980469 35.7962760925293 32.609947204589844
          32.24653625488281 30.956024169921875 35.8912239074707 35.22773742675781 35.62125778198242 29.486324310302734
          28.71023941040039 35.71619415283203 35.06563949584961 35.63199234008789 36.41305160522461 36.29969787597656
          36.57002639770508 34.70112228393555 34.83436965942383 35.8993034362793 36.082275390625 35.197574615478516
          35.14528274536133 35.36686325073242 35.01369094848633 36.03303909301758 35.495506286621094 35.29587936401367
          34.58793258666992 34.561161041259766 33.71487808227539 34.27082824707031 33.5677375793457 34.072628021240234
          25.936735153198242 26.577396392822266 23.849252700805664 34.85403060913086 35.05116271972656 35.45235061645508
          40.79852294921875 34.56296157836914 36.334842681884766 35.648555755615234 31.803585052490234 30.087682723999023
          29.993999481201172 31.988798141479492 32.350528717041016 35.88605880737305 40.771942138671875 34.62400436401367
          34.51823806762695 34.64385223388672 37.55463790893555 48.817779541015625 36.88114929199219 37.86610412597656
          34.48418045043945 34.678802490234375 35.01371765136719 34.46690368652344 34.460697174072266 34.583892822265625
          34.96126174926758 34.5219841003418 34.009033203125 34.66227340698242 34.67803192138672 19.10760498046875
          13.766593933105469 22.89371681213379 22.922222137451172 28.518692016601562 26.64850616455078 34.87131881713867
          34.650306701660156 34.76601791381836 16.720211029052734 15.587757110595703 10 33.11793518066406
          34.64997482299805 34.79475021362305 36.16194152832031 35.909217834472656 36.66046142578125 34.51371383666992
          34.44942855834961 35.20822525024414 36.05261993408203 34.91373062133789 34.60264205932617 34.9230842590332
          33.019676208496094 34.027103424072266 32.85929489135742 36.18901062011719 36.60342788696289 30.383386611938477
          26.518274307250977 35.13192367553711 35.093833923339844 35.60586929321289 31.865182876586914 29.65234375
          33.00724792480469 24.952369689941406 27.59786033630371 20.046035766601562 17.855031967163086 16.338516235351562
          35.266170501708984 16.24563217163086 11.536117553710938 15.47835922241211 33.23164749145508 33.67398452758789
          32.959407806396484 19.203739166259766 21.965518951416016 35.06743621826172 34.68549728393555 35.48953628540039
          35.28166198730469 35.65493392944336 49.169105529785156 49.50117492675781 48.444488525390625 36.07551956176758
          35.48524856567383 35.62084197998047 36.1063117980957 36.05588150024414 35.568145751953125 23.41862678527832
          35.26398468017578 19.761093139648438 35.281959533691406 24.804759979248047 34.7434196472168 34.385337829589844
          34.20566177368164 33.89809799194336 34.999671936035156 34.760372161865234 34.87894058227539 35.06953811645508
          34.708526611328125 34.22652816772461 33.08155059814453 33.330020904541016 45.512691497802734 49.57257080078125
          35.2327766418457 40.860225677490234 35.50676345825195 35.54471969604492 26.62727928161621 30.633071899414062
          32.221397399902344 35.555328369140625 35.50807571411133 31.952648162841797 29.794273376464844 35.722930908203125
          36.35415267944336 35.36949920654297 34.3521842956543 34.78390121459961 35.053470611572266 35.904151916503906
          35.7032585144043 35.67107009887695 35.26236343383789 35.77436065673828 35.951568603515625 34.949485778808594
          35.13833236694336 35.68349075317383 36.56879425048828 35.6013069152832 36.286277770996094 26.651742935180664
          27.007949829101562 36.76258850097656 35.74623107910156 35.577049255371094 35.79640579223633 35.40092086791992
          47.907569885253906 45.840484619140625 30.968095779418945 32.50375747680664 48.216209411621094 46.864288330078125
          48.67314529418945 33.6108283996582 34.23189163208008 49.40559387207031 49.99999237060547 32.678524017333984
          32.53998947143555 35.206871032714844 34.92713928222656 34.85528564453125 49.91498565673828 50
          49.99999237060547 50.0000114440918 49.70242691040039 49.143707275390625 48.6837158203125 35.10654830932617
          34.814022064208984 34.808441162109375 35.05739974975586 35.1275520324707 44.189422607421875 41.99433135986328
          34.54709243774414 36.933467864990234 48.03741455078125 48.99708938598633 49.84528732299805 31.712491989135742
          27.781829833984375 46.91756820678711 49.081207275390625 35.41220474243164 35.36687088012695 35.4339599609375
          34.94558334350586 34.991783142089844 49.99998474121094 34.169803619384766 50.00001525878906 35.31726837158203
          49.76632308959961 27.71859359741211 31.926565170288086 29.41425323486328 34.71442413330078 34.89801025390625
          34.630584716796875 32.113136291503906 32.382686614990234 34.65303039550781 34.880393981933594 34.827415466308594
          35.15185546875 29.457212448120117 25.461917877197266 34.675872802734375 49.745025634765625 35.93758010864258
          27.011693954467773 25.757614135742188 35.63266372680664 23.495391845703125 21.061948776245117 34.966068267822266
          35.860355377197266 34.47620391845703 33.79685592651367 20.812637329101562 17.344764709472656 35.69704818725586
          34.917259216308594 35.79865646362305 48.8359489440918 47.13531494140625 49.6833381652832 49.415306091308594
          49.391571044921875 49.40575408935547 48.512264251708984 47.31103515625 49.99999237060547 50.000022888183594
          41.929168701171875 49.319366455078125 45.331058502197266 49.97909164428711 49.81890869140625 49.99997329711914
          49.99816131591797 47.8499641418457 34.96392822265625 35.3509521484375 48.31064224243164 31.465682983398438
          29.286069869995117 34.32563781738281 41.22029113769531 35.370548248291016 36.59107971191406 35.43047332763672
          35.44847106933594 36.35029602050781 39.21480178833008 37.62113571166992 30.72970962524414 31.324357986450195
          27.045175552368164 26.097137451171875 28.01154899597168 44.42157745361328 40.455726623535156 46.94403076171875
          49.07753372192383 34.92670822143555 48.03981018066406 49.793724060058594 34.731689453125 49.91535949707031
          34.64011764526367 34.75224304199219 34.77921676635742 34.38267135620117 34.44874954223633 34.96562194824219
          35.23603057861328 34.78593826293945 34.54753875732422 34.808284759521484 34.89939498901367 34.51841354370117
          34.75506591796875 32.72926330566406 32.91782760620117 33.72970199584961 35.705955505371094 33.3881950378418
          33.50629806518555 32.417236328125 30.738996505737305 34.1407356262207 33.713523864746094 34.823001861572266
          39.388519287109375 35.08359909057617 36.19785690307617 39.582420349121094 49.473453521728516 47.98737335205078
          48.67243576049805 44.280826568603516 42.03977966308594 43.84871292114258 32.1898307800293 36.20838928222656
          21.63081169128418 21.867210388183594 16.75774383544922 26.122114181518555 31.542892456054688 29.70107650756836
          28.302934646606445 24.181411743164062 18.17283058166504 20.402145385742188 32.02084732055664 37.09764099121094
          36.95994567871094 35.76415252685547 34.84268569946289 34.80924987792969 34.77939987182617 34.865814208984375
          34.7154426574707 32.791748046875 33.12394332885742 33.14466857910156 33.1402587890625 33.673065185546875
          33.45198059082031 30.20778465270996 36.63875961303711 37.17333984375 36.391258239746094 35.168907165527344
          37.0245361328125 34.40074157714844 34.730201721191406 34.011253356933594 32.05295181274414 33.606361389160156
          35.54392623901367 34.95002365112305 33.438697814941406 33.852020263671875 34.22813415527344 34.159732818603516
          36.13087463378906 34.58876037597656 34.725914001464844 35.498573303222656 35.59640121459961 34.36611557006836
          36.02568435668945 28.709611892700195 36.168601989746094 35.69874954223633 34.23957824707031 34.431053161621094
          35.08034133911133 33.35963821411133 33.85661315917969 32.407554626464844 35.63147735595703 35.22922897338867
          34.20024871826172 34.82756805419922 34.83890914916992
        </DataArray>
      </PointData>
      <CellData>
        <DataArray type="Int32" Name="MaterialIDs" format="ascii" RangeMin="0" RangeMax="0">
          0 0 0 0 0 0
          0 0 0 0 0 0
          0 0 0 0 0 0
          0 0 0 0 0 0
          0 0 0 0 0 0
          0 0 0 0 0 0
          0 0 0 0 0 0
          0 0 0 0 0 0
          0 0 0 0 0 0
          0 0 0 0 0 0
          0 0 0 0 0 0
          0 0 0 0 0 0
          0 0 0 0 0 0
          0 0 0 0 0 0
          0 0 0 0 0 0
          0 0 0 0 0 0
          0 0 0 0 0 0
          0 0 0 0 0 0
          0 0 0 0 0 0
          0 0 0 0 0 0
          0 0 0 0 0 0
          0 0 0 0 0 0
          0 0 0 0 0 0
          0 0 0 0 0 0
          0 0 0 0 0 0
          0 0 0 0 0 0
          0 0 0 0 0 0
          0 0 0 0 0 0
          0 0 0 0 0 0
          0 0 0 0 0 0
          0 0 0 0 0 0
          0 0 0 0 0 0
          0 0 0 0 0 0
          0 0 0 0 0 0
          0 0 0 0 0 0
          0 0 0 0 0 0
          0 0 0 0 0 0
          0 0 0 0 0 0
          0 0 0 0 0 0
          0 0 0 0 0 0
          0 0 0 0 0 0
          0 0 0 0 0 0
          0 0 0 0 0 0
          0 0 0 0 0 0
          0 0 0 0 0 0
          0 0 0 0 0 0
          0 0 0 0 0 0
          0 0 0 0 0 0
          0 0 0 0 0 0
          0 0 0 0 0 0
          0 0 0 0 0 0
          0 0 0 0 0 0
          0 0 0 0 0 0
          0 0 0 0 0 0
          0 0 0 0 0 0
          0 0 0 0 0 0
          0 0 0 0 0 0
          0 0 0 0 0 0
          0 0 0 0 0 0
          0 0 0 0 0 0
          0 0 0 0 0 0
          0 0 0 0 0 0
          0 0 0 0 0 0
          0 0 0 0 0 0
          0 0 0 0 0 0
          0 0 0 0 0 0
          0 0 0 0 0 0
          0 0 0 0 0 0
          0 0 0 0 0 0
          0 0 0 0 0 0
          0 0 0 0 0 0
          0 0 0 0 0 0
          0 0 0 0 0 0
          0 0 0 0 0 0
          0 0 0 0 0 0
          0 0 0 0 0 0
          0 0 0 0 0 0
          0 0 0 0 0 0
          0 0 0 0 0 0
          0 0 0 0 0 0
          0 0 0 0 0 0
          0 0 0 0 0 0
          0 0 0 0 0 0
          0 0 0 0 0 0
          0 0 0 0 0 0
          0 0 0 0 0 0
          0 0 0 0 0 0
          0 0 0 0 0 0
          0 0 0 0 0 0
          0 0 0 0 0 0
          0 0 0 0 0 0
          0 0 0 0 0 0
          0 0 0 0 0 0
          0 0 0 0 0 0
          0 0 0 0 0 0
          0 0 0 0 0 0
          0 0 0 0 0 0
          0 0 0 0 0 0
          0 0 0 0 0 0
          0 0 0 0 0 0
          0 0 0 0 0 0
          0 0 0 0 0 0
          0 0 0 0 0 0
          0 0 0 0 0 0
          0 0 0 0 0 0
          0 0 0 0 0 0
          0 0 0 0 0 0
          0 0 0 0 0 0
          0 0 0 0 0 0
          0 0 0 0 0 0
          0 0 0 0 0 0
          0 0 0 0 0 0
          0 0 0 0 0 0
          0 0 0 0 0 0
          0 0 0 0 0 0
          0 0 0 0 0 0
          0 0 0 0 0 0
          0 0 0 0 0 0
          0 0 0 0 0 0
          0 0 0 0 0 0
          0 0 0 0 0 0
          0 0 0 0 0 0
          0 0 0 0 0 0
          0 0 0 0 0 0
          0 0 0 0 0 0
          0 0 0 0 0 0
          0 0 0 0 0 0
          0 0 0 0 0 0
          0 0 0 0 0 0
          0 0 0 0 0 0
          0 0 0 0 0 0
          0 0 0 0 0 0
          0 0 0 0 0 0
          0 0 0 0 0 0
          0 0 0 0 0 0
          0 0 0 0 0 0
          0 0 0 0 0 0
          0 0 0 0 0 0
          0 0 0 0 0 0
          0 0 0 0 0 0
          0 0 0 0 0 0
          0 0 0 0 0 0
          0 0 0 0 0 0
          0 0 0 0 0 0
          0 0 0 0 0 0
          0 0 0 0 0 0
          0 0 0 0 0 0
          0 0 0 0 0 0
          0 0 0 0 0 0
          0 0 0 0 0 0
          0 0 0 0 0 0
          0 0 0 0 0 0
          0 0 0 0 0 0
          0 0 0 0 0 0
          0 0 0 0 0 0
          0 0 0 0 0 0
          0 0 0 0 0 0
          0 0 0 0 0 0
          0 0 0 0 0 0
          0 0 0 0 0 0
          0 0 0 0 0 0
          0 0 0 0 0 0
          0 0 0 0 0 0
          0 0 0 0 0 0
          0 0 0 0 0 0
          0 0 0 0 0 0
          0 0 0 0 0 0
          0 0 0 0 0 0
          0 0 0 0 0 0
          0 0 0 0 0 0
          0 0 0 0 0 0
          0 0 0 0 0 0
          0 0 0 0 0 0
          0 0 0 0 0 0
          0 0 0 0 0 0
          0 0 0 0 0 0
          0 0 0 0 0 0
          0 0 0 0 0 0
          0 0 0 0 0 0
          0 0 0 0 0 0
          0 0 0 0 0 0
          0 0 0 0 0 0
          0 0 0 0 0 0
          0 0 0 0 0 0
          0 0 0 0 0 0
          0 0 0 0 0 0
          0 0 0 0 0 0
          0 0 0 0 0 0
          0 0 0 0 0 0
          0 0 0 0 0 0
          0 0 0 0 0 0
          0 0 0 0 0 0
          0 0 0 0 0 0
          0 0 0 0 0 0
          0 0 0 0 0 0
          0 0 0 0 0 0
          0 0 0 0 0 0
          0 0 0 0 0 0
          0 0 0 0 0 0
          0 0 0 0 0 0
          0 0 0 0 0 0
          0 0 0 0 0 0
          0 0 0 0 0 0
          0 0 0 0 0 0
          0 0 0 0 0 0
          0 0 0 0 0 0
          0 0 0 0 0 0
          0 0 0 0 0 0
          0 0 0 0 0 0
          0 0 0 0 0 0
          0 0 0 0 0 0
          0 0 0 0 0 0
          0 0 0 0 0 0
          0 0 0 0 0 0
          0 0 0 0 0 0
          0 0 0 0 0 0
          0 0 0 0 0 0
          0 0 0 0 0 0
          0 0 0 0 0 0
          0 0 0 0 0 0
          0 0 0 0 0 0
          0 0 0 0 0 0
          0 0 0 0 0 0
          0 0 0 0 0 0
          0 0 0 0 0 0
          0 0 0 0 0 0
          0 0 0 0 0 0
          0 0 0 0 0 0
          0 0 0 0 0 0
          0 0 0 0 0 0
          0 0 0 0 0 0
          0 0 0 0 0 0
          0 0 0 0 0 0
          0 0 0 0 0 0
          0 0 0 0 0 0
          0 0 0 0 0 0
          0 0 0 0 0 0
          0 0 0 0 0 0
          0 0 0 0 0 0
          0 0 0 0 0 0
          0 0 0 0 0 0
          0 0 0 0 0 0
          0 0 0 0 0 0
          0 0 0 0 0 0
          0 0 0 0 0 0
          0 0 0 0 0 0
          0 0 0 0 0 0
          0 0 0 0 0 0
          0 0 0 0 0 0
          0 0 0 0 0 0
          0 0 0 0 0 0
          0 0 0 0 0 0
          0 0 0 0 0 0
          0 0 0 0 0 0
          0 0 0 0 0 0
          0 0 0 0 0 0
          0 0 0 0 0 0
          0 0 0 0 0 0
          0 0 0 0 0 0
          0 0 0 0 0 0
          0 0 0 0 0 0
          0 0 0 0 0 0
          0 0 0 0 0 0
          0 0 0 0 0 0
          0 0 0 0 0 0
          0 0 0 0 0 0
          0 0 0 0 0 0
          0 0 0 0 0 0
          0 0 0 0 0 0
          0 0 0 0 0 0
          0 0 0 0 0 0
          0 0 0 0 0 0
          0 0 0 0 0 0
          0 0 0 0 0 0
          0 0 0 0 0 0
          0 0 0 0 0 0
          0 0 0 0 0 0
          0 0 0 0 0 0
          0 0 0 0 0 0
          0 0 0 0 0 0
          0 0 0 0 0 0
          0 0 0 0 0 0
          0 0 0 0 0 0
          0 0 0 0 0 0
          0 0 0 0 0 0
          0 0 0 0 0 0
          0 0 0 0 0 0
          0 0 0 0 0 0
          0 0 0 0 0 0
          0 0 0 0 0 0
          0 0 0 0 0 0
          0 0 0 0 0 0
          0 0 0 0 0 0
          0 0 0 0 0 0
          0 0 0 0 0 0
          0 0 0 0 0 0
          0 0 0 0 0 0
          0 0 0 0 0 0
          0 0 0 0 0 0
          0 0 0 0 0 0
          0 0 0 0 0 0
          0 0 0 0 0 0
          0 0 0 0 0 0
          0 0 0 0 0 0
          0 0 0 0 0 0
          0 0 0 0 0 0
          0 0 0 0 0 0
          0 0 0 0 0 0
          0 0 0 0 0 0
          0 0 0 0 0 0
          0 0 0 0 0 0
          0 0 0 0 0 0
          0 0 0 0 0 0
          0 0 0 0 0 0
          0 0 0 0 0 0
          0 0 0 0 0 0
          0 0 0 0 0 0
          0 0 0 0 0 0
          0 0 0 0 0 0
          0 0 0 0 0 0
          0 0 0 0 0 0
          0 0 0 0 0 0
          0 0 0 0 0 0
          0 0 0 0 0 0
          0 0 0 0 0 0
          0 0 0 0 0 0
          0 0 0 0 0 0
          0 0 0 0 0 0
          0 0 0 0 0 0
          0 0 0 0 0 0
          0 0 0 0 0 0
          0 0 0 0 0 0
          0 0 0 0 0 0
          0 0 0 0 0 0
          0 0 0 0 0 0
          0 0 0 0 0 0
          0 0 0 0 0 0
          0 0 0 0 0 0
          0 0 0 0 0 0
          0 0 0 0 0 0
          0 0 0 0 0 0
          0 0
        </DataArray>
      </CellData>
      <Points>
        <DataArray type="Float64" Name="Points" NumberOfComponents="3" format="ascii" RangeMin="12872.572432371722" RangeMax="28188.35334956957">
          18800 9000 -419.24774169921875 9200 9000 -251.23898315429688
          18800 21000 -378.5030517578125 9200 21000 -113.17472076416016
          14000 9000 -354.4930725097656 18800 15000 -425.4223937988281
          14002.158203125 15004.515625 -218.6024627685547 14000 21000 -130.39443969726562