<?xml version="1.0"?>
<VTKFile type="UnstructuredGrid" version="1.0" byte_order="LittleEndian" header_type="UInt64">
  <UnstructuredGrid>
    <Piece NumberOfPoints="1089" NumberOfCells="2048">
      <PointData>
        <DataArray type="Float64" Name="Maechtigkeit" format="ascii" RangeMin="18.98614501953125" RangeMax="150">
          96.0538330078125 52.687286376953125 55.899658203125 21.994346618652344 68.78964233398438 105.50064086914062
          91.93904876708984 147.57159423828125 50.79712677001953 102.30317687988281 55.508056640625 56.02128982543945
          50.642391204833984 65.82412719726562 88.63717651367188 105.89338684082031 96.54342651367188 104.691162109375
          54.59086608886719 97.5858154296875 20.096519470214844 63.8631591796875 46.79499816894531 72.58847045898438
          49.35975646972656 93.33023071289062 89.0933837890625 76.61602783203125 72.22457122802734 88.8736572265625
          137.20733642578125 58.98390197753906 45.613311767578125 54.257476806640625 65.53903198242188 77.61500549316406
          83.81998443603516 66.07256317138672 75.7824478149414 73.62669372558594 122.8877944946289 77.8483657836914
          110.5396499633789 79.2574462890625 120.56929779052734 75.63776397705078 73.07804107666016 66.25048828125
          68.97855377197266 84.48202514648438 59.1490364074707 62.48231506347656 105.3459243774414 96.3800048828125
          103.55511474609375 109.30319213867188 110.15603637695312 100.75248718261719 77.08671569824219 89.84075927734375
          68.38944244384766 55.6552734375 26.19573974609375 54.096073150634766 24.435646057128906 51.10573959350586
          55.35933303833008 48.301055908203125 52.768585205078125 54.21577072143555 52.79087829589844 51.08137512207031
          53.85443115234375 59.0139045715332 95.2386474609375 79.02076721191406 66.19390106201172 87.30132293701172
          73.56954956054688 59.17716598510742 55.571205139160156 78.95746612548828 72.41729736328125 81.51548767089844
          82.8623046875 66.16841125488281 57.05787658691406 102.14173126220703 92.994140625 115.80467987060547
          77.15245819091797 93.29058074951172 79.92161560058594 62.280216217041016 51.32657241821289 54.23804473876953
          94.62362670898438 81.02676391601562 93.97777557373047 52.62556838989258 58.7071647644043 46.301544189453125
          96.02274322509766 108.71880340576172 72.0905990600586 76.25117492675781 76.74006652832031 53.080650329589844
          54.89314651489258 53.191341400146484 89.14910888671875 90.26699829101562 88.0711441040039 70.9708023071289
          70.86833953857422 125.96112060546875 118.0655517578125 54.10512924194336 51.3255500793457 52.78293991088867
          75.46197509765625 74.01386260986328 66.08686065673828 43.22325134277344 50.77128601074219 41.09385299682617
          72.91138458251953 64.06981658935547 68.40922546386719 70.79696655273438 66.5257797241211 62.0536003112793
          107.68207550048828 93.0416259765625 123.7259750366211 109.29973602294922 119.56746673583984 77.32966613769531
          81.4676284790039 91.53460693359375 88.19546508789062 54.26637649536133 49.57331085205078 44.99560546875
          80.42742919921875 60.98451232910156 60.61658477783203 55.43955993652344 52.755706787109375 112.7281494140625
          118.63555908203125 149.70785522460938 97.47862243652344 115.19727325439453 86.21304321289062 79.77964782714844
          60.45595932006836 64.48194122314453 49.16035079956055 53.67195510864258 81.28163146972656 87.5179214477539
          52.505191802978516 51.691070556640625 54.559104919433594 55.03387451171875 54.31421661376953 57.017112731933594
          110.37109375 56.296974182128906 55.92539596557617 53.082183837890625 87.9334487915039 110.01213836669922
          83.26122283935547 87.53855895996094 90.2057876586914 67.74361419677734 59.70335006713867 63.097206115722656
          67.68072509765625 68.65277862548828 121.0501937866211 114.7609634399414 64.67910766601562 58.29736328125
          78.04049682617188 79.97218322753906 70.05891418457031 73.61334228515625 66.11165618896484 78.24638366699219
          69.05252838134766 66.18993377685547 53.56299591064453 51.47593688964844 53.706146240234375 64.8325424194336
          55.32646942138672 62.48597717285156 68.10507202148438 73.90843963623047 100.8148422241211 96.03787231445312
          99.25552368164062 104.75839233398438 104.939697265625 105.86045837402344 101.79025268554688 100.98539733886719
          96.0970458984375 114.45884704589844 111.29937744140625 114.76567840576172 110.11534118652344 110.4631118774414
          106.98429870605469 106.516357421875 83.32290649414062 70.79976654052734 75.69952392578125 94.92961120605469
          96.62286376953125 99.45796203613281 92.49656677246094 101.56160736083984 89.88859558105469 105.95858764648438
          103.79843139648438 106.45960235595703 64.08778381347656 72.55670166015625 57.531620025634766 64.61066436767578
          75.5659408569336 65.9808578491211 44.03132629394531 32.442474365234375 24.29883575439453 62.36729049682617
          64.75363159179688 50.57038497924805 24.67340850830078 48.670005798339844 66.865234375 80.05895233154297
          79.75901794433594 37.666786193847656 52.81740188598633 55.18544387817383 43.63880157470703 19.594985961914062
          61.541748046875 72.03319549560547 61.18537139892578 80.29843139648438 69.16207885742188 53.35577392578125
          61.87085723876953 54.90550231933594 67.18156433105469 49.65150451660156 49.69859313964844 58.04225158691406
          56.83495330810547 57.78015899658203 51.96957015991211 57.58546447753906 56.909912109375 59.15938949584961
          53.36750030517578 48.65626525878906 49.898712158203125 90.47010040283203 129.72532653808594 68.44139099121094
          67.03497314453125 65.43026733398438 69.53257751464844 55.06025695800781 64.41941833496094 83.56352996826172
          90.74848175048828 71.12454223632812 88.48682403564453 83.8763427734375 66.93203735351562 59.73995590209961
          62.3460693359375 53.326602935791016 53.65705108642578 53.966800689697266 52.653690338134766 51.689632415771484
          52.318321228027344 50.99619674682617 59.47189712524414 60.62422180175781 74.4371109008789 73.06456756591797
          76.06432342529297 66.40292358398438 65.65631103515625 71.566162109375 66.03421783447266 62.3294677734375
          69.2636489868164 54.8637580871582 56.25389099121094 59.06386184692383 70.80144500732422 66.076416015625
          70.55240631103516 113.65585327148438 113.0867919921875 116.70990753173828 52.652523040771484 53.10224914550781
          51.846805572509766 74.51671600341797 76.20536041259766 73.50724029541016 45.7135124206543 49.89558792114258
          47.950496673583984 88.10523986816406 83.26202392578125 83.7669906616211 91.47136688232422 90.35245513916016
          89.74845886230469 77.19007110595703 74.46037292480469 71.13203430175781 90.54443359375 90.44991302490234
          44.988887786865234 39.86304473876953 52.01333236694336 52.73444747924805 87.67545318603516 85.11383819580078
          80.23165130615234 100.03218078613281 101.6075439453125 102.2426986694336 88.99543762207031 90.92464447021484
          91.34989929199219 108.56019592285156 108.33255004882812 110.45744323730469 62.01802062988281 56.942359924316406
          57.69606399536133 39.69759750366211 39.34792709350586 26.876983642578125 105.48056030273438 106.45610046386719
          104.8176498413086 102.58192443847656 96.36300659179688 104.2080078125 73.4795913696289 79.4854507446289
          76.43804931640625 53.59408950805664 54.19963073730469 53.70264434814453 99.2373275756836 96.2408447265625
          99.27310943603516 51.87290954589844 49.637657165527344 52.76182556152344 106.86566925048828 108.19488525390625
          107.53995513916016 73.70089721679688 80.74102783203125 76.51123809814453 103.94277954101562 105.45557403564453
          104.07616424560547 78.74938201904297 84.8333740234375 83.67726135253906 90.02655792236328 86.27740478515625
          92.15814971923828 113.13438415527344 112.18521118164062 111.37374877929688 89.01065826416016 95.66983795166016
          105.36006927490234 68.63550567626953 69.81953430175781 117.97529602050781 122.57304382324219 122.93854522705078
          69.50782775878906 70.66876220703125 53.40806198120117 51.96076583862305 85.6202163696289 84.04810333251953
          80.01646423339844 96.72765350341797 102.9722900390625 97.8021011352539 97.69043731689453 97.88473510742188
          95.82328796386719 51.80269241333008 50.4455680847168 48.9398193359375 64.19277954101562 60.51725769042969
          66.53019714355469 50.91822814941406 51.924766540527344 49.248008728027344 53.6941032409668 54.83161926269531
          53.25932693481445 72.05287170410156 63.25239181518555 67.88941955566406 74.81181335449219 65.22708892822266
          77.87386322021484 79.40290832519531 70.29865264892578 74.69222259521484 69.89761352539062 126.58094787597656
          125.08909606933594 123.22818756103516 77.37857818603516 79.17727661132812 82.46190643310547 59.67661666870117
          59.448246002197266 55.19752502441406 53.94765090942383 55.28704071044922 54.008628845214844 75.34798431396484
          68.30844116210938 58.38784408569336 65.1602783203125 61.271541595458984 85.88734436035156 77.33767700195312
          53.44469451904297 53.361446380615234 54.465484619140625 99.10055541992188 101.40534210205078 91.66036987304688
          62.29567337036133 57.23811721801758 58.562049865722656 32.83692932128906 33.98203659057617 18.98614501953125
          76.23091125488281 72.62906646728516 71.85113525390625 83.54580688476562 92.47956848144531 86.98255157470703
          33.266212463378906 25.66388702392578 37.12063980102539 66.81914520263672 66.64085388183594 69.340576171875
          90.1657485961914 91.62940216064453 66.80308532714844 65.4307632446289 71.93820190429688 66.63003540039062
          68.76201629638672 51.272247314453125 49.83768844604492 52.84813690185547 61.92369842529297 64.29486083984375
          64.39380645751953 77.89649963378906 74.92240142822266 77.68785095214844 59.05161666870117 55.7450065612793
          58.82188034057617 78.11221313476562 77.19371795654297 111.35313415527344 102.07009887695312 119.05683898925781
          101.09456634521484 107.34751892089844 54.41300964355469 54.88032531738281 52.21394348144531 53.59428787231445
          50.16036605834961 51.84878921508789 55.28937530517578 55.2384033203125 56.730316162109375 115.37983703613281
          118.35126495361328 117.30550384521484 64.24166870117188 62.40495681762695 62.15169143676758 53.516502380371094
          54.19403076171875 53.6291389465332 54.79023742675781 54.62324905395508 68.83802795410156 73.60662078857422
          70.42292785644531 82.56620788574219 79.26972961425781 77.31339263916016 56.927242279052734 60.34273910522461
          57.84941864013672 71.59274291992188 68.19713592529297 78.48944091796875 80.05587768554688 74.84071350097656
          73.80035400390625 80.4222640991211 66.29924011230469 69.72830963134766 63.26929473876953 65.09232330322266
          68.77595520019531 63.984134674072266 61.95512008666992 32.178672790527344 41.858150482177734 69.74488067626953
          72.20307922363281 68.41558837890625 69.35137176513672 73.41097259521484 77.44993591308594 75.96177673339844
          72.0263442993164 83.68518829345703 86.62933349609375 84.9103012084961 91.58715057373047 83.6988296508789
          79.57333374023438 80.10174560546875 38.74368667602539 22.89775848388672 36.257633209228516 70.22025299072266
          65.33623504638672 86.54592895507812 88.76153564453125 69.88158416748047 66.53324890136719 85.01390838623047
          55.38120651245117 53.25568389892578 55.188297271728516 66.53791809082031 68.47293090820312 53.878684997558594
          53.83452606201172 54.552616119384766 59.81171417236328 60.70273208618164 57.35807800292969 61.120208740234375
          58.28506851196289 57.554595947265625 72.33081817626953 78.82247924804688 29.597339630126953 23.807090759277344
          21.85651397705078 62.438255310058594 57.804447174072266 54.177215576171875 77.76292419433594 77.51642608642578
          81.4474105834961 74.44316101074219 82.78962707519531 51.97040557861328 49.421504974365234 81.24686431884766
          84.06383514404297 104.51290130615234 101.04694366455078 103.51429748535156 54.943058013916016 54.34699630737305
          76.08244323730469 72.7107925415039 96.87535095214844 97.50747680664062 55.023590087890625 56.940486907958984
          64.75717163085938 60.27040481567383 55.85111618041992 58.412132263183594 55.71516418457031 50.93882751464844
          59.34566879272461 60.60983657836914 58.10087585449219 68.12777709960938 64.47832489013672 77.31855773925781
          79.49429321289062 93.5483627319336 60.884681701660156 64.60270690917969 60.968482971191406 73.67845153808594
          88.6318588256836 79.98394775390625 49.36166763305664 50.04300308227539 50.48039627075195 55.5357551574707
          105.01181030273438 100.70329284667969 110.3189468383789 110.08912658691406 120.0956039428711 114.79888153076172
          97.05760192871094 87.56747436523438 83.61323547363281 52.94258499145508 56.93365478515625 55.3951301574707
          86.052978515625 86.62976837158203 97.57177734375 90.56689453125 77.65508270263672 71.3682861328125
          70.45902252197266 84.47528076171875 90.42879486083984 53.723018646240234 52.34968566894531 51.4356575012207
          51.97513198852539 56.1060905456543 117.15283203125 101.20040130615234 103.76558685302734 57.79195022583008
          65.59673309326172 59.002601623535156 55.880367279052734 69.32682800292969 63.494850158691406 62.35184860229492
          55.354736328125 59.885841369628906 54.9561653137207 85.86944580078125 81.07670593261719 82.88529205322266
          68.7562026977539 61.922760009765625 62.853755950927734 87.41732025146484 85.68529510498047 94.8359146118164
          102.50816345214844 102.4890365600586 53.20863342285156 87.5941162109375 87.11998748779297 80.55477142333984
          87.40514373779297 87.55876159667969 84.1487045288086 64.09999084472656 60.47203826904297 63.106842041015625
          53.171409606933594 57.549015045166016 49.3641357421875 49.957271575927734 44.304718017578125 61.638648986816406
          58.01681900024414 61.73214340209961 108.4716796875 110.1220474243164 102.42496490478516 107.78539276123047
          56.080711364746094 57.895904541015625 97.12451171875 93.36588287353516 52.314998626708984 50.564910888671875
          52.183433532714844 107.92345428466797 74.63428497314453 76.79265594482422 63.33039474487305 58.8375129699707
          61.909217834472656 53.562992095947266 58.04048156738281 60.22639465332031 75.77328491210938 20.644699096679688
          33.468963623046875 88.22563934326172 83.72799682617188 83.68246459960938 74.24229431152344 45.158416748046875
          63.252201080322266 53.020992279052734 52.38066101074219 52.2234992980957 90.90258026123047 73.10118103027344
          78.45488739013672 73.4342269897461 91.1418228149414 89.36140441894531 68.320556640625 67.85108184814453
          110.0787582397461 111.7464599609375 112.90467834472656 75.0025405883789 98.08831024169922 105.53813171386719
          120.56155395507812 123.73737335205078 54.51053237915039 52.760009765625 125.62102508544922 117.87604522705078
          50.81193542480469 72.33789825439453 67.97160339355469 61.510433197021484 56.32685852050781 62.30768585205078
          59.013668060302734 53.90730667114258 52.244686126708984 75.19778442382812 79.98653411865234 47.244712829589844
          52.17768478393555 48.54591369628906 41.54245376586914 35.88728713989258 47.328208923339844 66.5749282836914
          65.92943572998047 70.6289291381836 72.5675277709961 75.71243286132812 67.93218994140625 69.41702270507812
          64.23294830322266 61.75335693359375 65.49888610839844 63.199317932128906 67.55916595458984 67.79087829589844
          66.5166244506836 68.867919921875 74.69436645507812 71.38456726074219 100.66211700439453 106.396484375
          99.82662963867188 93.97216796875 85.85263061523438 101.60017395019531 109.34712219238281 116.12777709960938
          106.93431091308594 112.73294067382812 76.78656768798828 89.78996276855469 77.04570007324219 122.73140716552734
          122.99687194824219 125.92837524414062 117.91426086425781 118.0931167602539 110.51713562011719 85.322265625
          91.34097290039062 89.06317138671875 98.98439025878906 98.61387634277344 96.0428466796875 73.35309600830078
          83.71825408935547 95.19673156738281 57.264076232910156 60.108882904052734 62.566551208496094 78.46475982666016
          82.45223999023438 74.35748291015625 47.981266021728516 47.868736267089844 45.20343017578125 92.54072570800781
          106.74742889404297 98.32239532470703 49.6132698059082 45.67835998535156 52.22964859008789 88.0767593383789
          86.17981719970703 89.19596862792969 51.108802795410156 51.99118423461914 50.69359588623047 61.7386589050293
          54.27787399291992 55.310455322265625 56.2224006652832 73.23854064941406 106.17940521240234 106.23834991455078
          53.601539611816406 69.33039855957031 68.83866882324219 132.74847412109375 132.10475158691406 150
          129.69654846191406 144.9744110107422 123.21382904052734 53.951812744140625 105.88599395751953 114.38742065429688
          126.11065673828125 71.59368896484375 75.21640014648438 85.12593078613281 81.365234375 54.025970458984375
          66.70043182373047 64.80339813232422 67.57485961914062 56.79304122924805 90.68511199951172 65.75200653076172
          61.546722412109375 64.5893325805664 86.92772674560547 81.61229705810547 104.99449920654297 103.99506378173828
          104.65695190429688 84.3079605102539 78.34201049804688 82.2020492553711 53.494258880615234 54.162811279296875
          56.183738708496094 56.20332717895508 54.65129470825195 118.0316162109375 54.00227355957031 53.94637680053711
          105.85489654541016 105.9313735961914 54.3267822265625 49.190059661865234 48.495079040527344 48.15639114379883
          101.51629638671875 103.08130645751953 57.70252227783203 59.10552215576172 115.78517150878906 127.29853057861328
          103.1026840209961 99.34306335449219 84.09729766845703 93.04774475097656 89.54541015625 90.72086334228516
          91.66677856445312 74.70570373535156 78.2784652709961 79.68793487548828 60.59482192993164 57.691856384277344
          58.54931640625 65.1688232421875 69.1467514038086 71.5197525024414 62.581722259521484 66.13164520263672
          62.493743896484375 71.64020538330078 74.7433090209961 115.28057098388672 118.1884536743164 102.59545135498047
          103.43158721923828 104.625732421875 67.17477416992188 67.51130676269531 73.22366333007812 74.83907318115234
          71.54959106445312 81.39705657958984 83.0947265625 77.21235656738281 73.06302642822266 69.74526977539062
          63.35269546508789 68.27861022949219 112.19631958007812 110.49695587158203 112.70465087890625 114.67919921875
          117.04402160644531 117.67586517333984 121.84852600097656 66.27874755859375 63.3764533996582 50.4638557434082
          82.6544189453125 79.90863800048828 83.86801147460938 94.37399291992188 69.21778869628906 69.93588256835938
          68.11469268798828 67.27251434326172 64.12999725341797 38.43678283691406 50.154720306396484 42.91363525390625
          115.12178802490234 86.71175384521484 67.51070404052734 65.14726257324219 62.50079345703125 77.4161148071289
          101.55097961425781 64.87818145751953 57.53782653808594 60.950706481933594 59.791778564453125 52.461822509765625
          51.67951202392578 55.29768753051758 54.97993469238281 54.04961013793945 53.24800109863281 53.957435607910156
          107.61510467529297 89.74172973632812 85.65208435058594 69.83719635009766 71.70842742919922 80.6390380859375
          112.56453704833984 112.60808563232422 66.57267761230469 75.16252899169922 72.57249450683594 70.55302429199219
          68.31158447265625 49.51693344116211 48.365386962890625 97.88220977783203 95.89373779296875 97.01385498046875
          98.47573852539062 98.97834014892578 96.22494506835938 105.34657287597656 104.73757934570312 105.44134521484375
          105.58174896240234 53.052581787109375 109.40438842773438 108.83953857421875 106.90501403808594 105.92315673828125
          105.25332641601562 53.59709930419922 77.7364273071289 79.98017120361328 73.58702850341797 97.01797485351562
          98.41398620605469 100.283935546875 97.89466857910156 94.02552795410156 55.33966827392578 106.13717651367188
          100.34786224365234 50.45317840576172 50.97270202636719 101.65824890136719 102.6742935180664 90.52794647216797
          58.92636489868164 54.64430236816406 56.53860092163086 65.47749328613281 70.12007904052734 69.11700439453125
          58.42695999145508 89.47528076171875 58.68293762207031 55.503257751464844 50.491764068603516 51.1944580078125
          29.799575805664062 46.01131820678711 57.10246658325195 67.202392578125 50.43110656738281 59.61617660522461
          53.548065185546875 54.14319610595703 54.05633544921875 54.06586456298828 54.123382568359375 54.80298614501953
          55.667022705078125 54.08761978149414 61.27760314941406 58.732940673828125 60.06636428833008 66.32559204101562
          61.46884536743164 50.63025665283203 113.05911254882812 57.372154235839844 60.82650375366211 56.94478988647461
          47.700103759765625 91.82601928710938 50.288272857666016 51.24787902832031 142.06336975097656 85.27606964111328
          73.75855255126953 70.23088073730469 61.1102294921875 64.37442016601562 68.73750305175781 66.83312225341797
          75.31995391845703 66.89213562011719 58.31597137451172 55.89967727661133 52.75086975097656 53.23115158081055
          65.87505340576172 67.6552505493164 63.611366271972656
        </DataArray>
      </PointData>
      <CellData>
        <DataArray type="Int32" Name="MaterialIDs" format="ascii" RangeMin="0" RangeMax="0">
          0 0 0 0 0 0
          0 0 0 0 0 0
          0 0 0 0 0 0
          0 0 0 0 0 0
          0 0 0 0 0 0
          0 0 0 0 0 0
          0 0 0 0 0 0
          0 0 0 0 0 0
          0 0 0 0 0 0
          0 0 0 0 0 0
          0 0 0 0 0 0
          0 0 0 0 0 0
          0 0 0 0 0 0
          0 0 0 0 0 0
          0 0 0 0 0 0
          0 0 0 0 0 0
          0 0 0 0 0 0
          0 0 0 0 0 0
          0 0 0 0 0 0
          0 0 0 0 0 0
          0 0 0 0 0 0
          0 0 0 0 0 0
          0 0 0 0 0 0
          0 0 0 0 0 0
          0 0 0 0 0 0
          0 0 0 0 0 0
          0 0 0 0 0 0
          0 0 0 0 0 0
          0 0 0 0 0 0
          0 0 0 0 0 0
          0 0 0 0 0 0
          0 0 0 0 0 0
          0 0 0 0 0 0
          0 0 0 0 0 0
          0 0 0 0 0 0
          0 0 0 0 0 0
          0 0 0 0 0 0
          0 0 0 0 0 0
          0 0 0 0 0 0
          0 0 0 0 0 0
          0 0 0 0 0 0
          0 0 0 0 0 0
          0 0 0 0 0 0
          0 0 0 0 0 0
          0 0 0 0 0 0
          0 0 0 0 0 0
          0 0 0 0 0 0
          0 0 0 0 0 0
          0 0 0 0 0 0
          0 0 0 0 0 0
          0 0 0 0 0 0
          0 0 0 0 0 0
          0 0 0 0 0 0
          0 0 0 0 0 0
          0 0 0 0 0 0
          0 0 0 0 0 0
          0 0 0 0 0 0
          0 0 0 0 0 0
          0 0 0 0 0 0
          0 0 0 0 0 0
          0 0 0 0 0 0
          0 0 0 0 0 0
          0 0 0 0 0 0
          0 0 0 0 0 0
          0 0 0 0 0 0
          0 0 0 0 0 0
          0 0 0 0 0 0
          0 0 0 0 0 0
          0 0 0 0 0 0
          0 0 0 0 0 0
          0 0 0 0 0 0
          0 0 0 0 0 0
          0 0 0 0 0 0
          0 0 0 0 0 0
          0 0 0 0 0 0
          0 0 0 0 0 0
          0 0 0 0 0 0
          0 0 0 0 0 0
          0 0 0 0 0 0
          0 0 0 0 0 0
          0 0 0 0 0 0
          0 0 0 0 0 0
          0 0 0 0 0 0
          0 0 0 0 0 0
          0 0 0 0 0 0
          0 0 0 0 0 0
          0 0 0 0 0 0
          0 0 0 0 0 0
          0 0 0 0 0 0
          0 0 0 0 0 0
          0 0 0 0 0 0
          0 0 0 0 0 0
          0 0 0 0 0 0
          0 0 0 0 0 0
          0 0 0 0 0 0
          0 0 0 0 0 0
          0 0 0 0 0 0
          0 0 0 0 0 0
          0 0 0 0 0 0
          0 0 0 0 0 0
          0 0 0 0 0 0
          0 0 0 0 0 0
          0 0 0 0 0 0
          0 0 0 0 0 0
          0 0 0 0 0 0
          0 0 0 0 0 0
          0 0 0 0 0 0
          0 0 0 0 0 0
          0 0 0 0 0 0
          0 0 0 0 0 0
          0 0 0 0 0 0
          0 0 0 0 0 0
          0 0 0 0 0 0
          0 0 0 0 0 0
          0 0 0 0 0 0
          0 0 0 0 0 0
          0 0 0 0 0 0
          0 0 0 0 0 0
          0 0 0 0 0 0
          0 0 0 0 0 0
          0 0 0 0 0 0
          0 0 0 0 0 0
          0 0 0 0 0 0
          0 0 0 0 0 0
          0 0 0 0 0 0
          0 0 0 0 0 0
          0 0 0 0 0 0
          0 0 0 0 0 0
          0 0 0 0 0 0
          0 0 0 0 0 0
          0 0 0 0 0 0
          0 0 0 0 0 0
          0 0 0 0 0 0
          0 0 0 0 0 0
          0 0 0 0 0 0
          0 0 0 0 0 0
          0 0 0 0 0 0
          0 0 0 0 0 0
          0 0 0 0 0 0
          0 0 0 0 0 0
          0 0 0 0 0 0
          0 0 0 0 0 0
          0 0 0 0 0 0
          0 0 0 0 0 0
          0 0 0 0 0 0
          0 0 0 0 0 0
          0 0 0 0 0 0
          0 0 0 0 0 0
          0 0 0 0 0 0
          0 0 0 0 0 0
          0 0 0 0 0 0
          0 0 0 0 0 0
          0 0 0 0 0 0
          0 0 0 0 0 0
          0 0 0 0 0 0
          0 0 0 0 0 0
          0 0 0 0 0 0
          0 0 0 0 0 0
          0 0 0 0 0 0
          0 0 0 0 0 0
          0 0 0 0 0 0
          0 0 0 0 0 0
          0 0 0 0 0 0
          0 0 0 0 0 0
          0 0 0 0 0 0
          0 0 0 0 0 0
          0 0 0 0 0 0
          0 0 0 0 0 0
          0 0 0 0 0 0
          0 0 0 0 0 0
          0 0 0 0 0 0
          0 0 0 0 0 0
          0 0 0 0 0 0
          0 0 0 0 0 0
          0 0 0 0 0 0
          0 0 0 0 0 0
          0 0 0 0 0 0
          0 0 0 0 0 0
          0 0 0 0 0 0
          0 0 0 0 0 0
          0 0 0 0 0 0
          0 0 0 0 0 0
          0 0 0 0 0 0
          0 0 0 0 0 0
          0 0 0 0 0 0
          0 0 0 0 0 0
          0 0 0 0 0 0
          0 0 0 0 0 0
          0 0 0 0 0 0
          0 0 0 0 0 0
          0 0 0 0 0 0
          0 0 0 0 0 0
          0 0 0 0 0 0
          0 0 0 0 0 0
          0 0 0 0 0 0
          0 0 0 0 0 0
          0 0 0 0 0 0
          0 0 0 0 0 0
          0 0 0 0 0 0
          0 0 0 0 0 0
          0 0 0 0 0 0
          0 0 0 0 0 0
          0 0 0 0 0 0
          0 0 0 0 0 0
          0 0 0 0 0 0
          0 0 0 0 0 0
          0 0 0 0 0 0
          0 0 0 0 0 0
          0 0 0 0 0 0
          0 0 0 0 0 0
          0 0 0 0 0 0
          0 0 0 0 0 0
          0 0 0 0 0 0
          0 0 0 0 0 0
          0 0 0 0 0 0
          0 0 0 0 0 0
          0 0 0 0 0 0
          0 0 0 0 0 0
          0 0 0 0 0 0
          0 0 0 0 0 0
          0 0 0 0 0 0
          0 0 0 0 0 0
          0 0 0 0 0 0
          0 0 0 0 0 0
          0 0 0 0 0 0
          0 0 0 0 0 0
          0 0 0 0 0 0
          0 0 0 0 0 0
          0 0 0 0 0 0
          0 0 0 0 0 0
          0 0 0 0 0 0
          0 0 0 0 0 0
          0 0 0 0 0 0
          0 0 0 0 0 0
          0 0 0 0 0 0
          0 0 0 0 0 0
          0 0 0 0 0 0
          0 0 0 0 0 0
          0 0 0 0 0 0
          0 0 0 0 0 0
          0 0 0 0 0 0
          0 0 0 0 0 0
          0 0 0 0 0 0
          0 0 0 0 0 0
          0 0 0 0 0 0
          0 0 0 0 0 0
          0 0 0 0 0 0
          0 0 0 0 0 0
          0 0 0 0 0 0
          0 0 0 0 0 0
          0 0 0 0 0 0
          0 0 0 0 0 0
          0 0 0 0 0 0
          0 0 0 0 0 0
          0 0 0 0 0 0
          0 0 0 0 0 0
          0 0 0 0 0 0
          0 0 0 0 0 0
          0 0 0 0 0 0
          0 0 0 0 0 0
          0 0 0 0 0 0
          0 0 0 0 0 0
          0 0 0 0 0 0
          0 0 0 0 0 0
          0 0 0 0 0 0
          0 0 0 0 0 0
          0 0 0 0 0 0
          0 0 0 0 0 0
          0 0 0 0 0 0
          0 0 0 0 0 0
          0 0 0 0 0 0
          0 0 0 0 0 0
          0 0 0 0 0 0
          0 0 0 0 0 0
          0 0 0 0 0 0
          0 0 0 0 0 0
          0 0 0 0 0 0
          0 0 0 0 0 0
          0 0 0 0 0 0
          0 0 0 0 0 0
          0 0 0 0 0 0
          0 0 0 0 0 0
          0 0 0 0 0 0
          0 0 0 0 0 0
          0 0 0 0 0 0
          0 0 0 0 0 0
          0 0 0 0 0 0
          0 0 0 0 0 0
          0 0 0 0 0 0
          0 0 0 0 0 0
          0 0 0 0 0 0
          0 0 0 0 0 0
          0 0 0 0 0 0
          0 0 0 0 0 0
          0 0 0 0 0 0
          0 0 0 0 0 0
          0 0 0 0 0 0
          0 0 0 0 0 0
          0 0 0 0 0 0
          0 0 0 0 0 0
          0 0 0 0 0 0
          0 0 0 0 0 0
          0 0 0 0 0 0
          0 0 0 0 0 0
          0 0 0 0 0 0
          0 0 0 0 0 0
          0 0 0 0 0 0
          0 0 0 0 0 0
          0 0 0 0 0 0
          0 0 0 0 0 0
          0 0 0 0 0 0
          0 0 0 0 0 0
          0 0 0 0 0 0
          0 0 0 0 0 0
          0 0 0 0 0 0
          0 0 0 0 0 0
          0 0 0 0 0 0
          0 0 0 0 0 0
          0 0 0 0 0 0
          0 0 0 0 0 0
          0 0 0 0 0 0
          0 0 0 0 0 0
          0 0 0 0 0 0
          0 0 0 0 0 0
          0 0 0 0 0 0
          0 0 0 0 0 0
          0 0 0 0 0 0
          0 0 0 0 0 0
          0 0 0 0 0 0
          0 0 0 0 0 0
          0 0 0 0 0 0
          0 0 0 0 0 0
          0 0 0 0 0 0
          0 0 0 0 0 0
          0 0 0 0 0 0
          0 0 0 0 0 0
          0 0 0 0 0 0
          0 0 0 0 0 0
          0 0 0 0 0 0
          0 0 0 0 0 0
          0 0 0 0 0 0
          0 0
        </DataArray>
      </CellData>
      <Points>
        <DataArray type="Float64" Name="Points" NumberOfComponents="3" format="ascii" RangeMin="12873.708524636993" RangeMax="28189.159365160598">
          18800 9000 -515.3015747070312 9200 9000 -303.92626953125
          18800 21000 -434.4027099609375 9200 21000 -135.1690673828125
          14000 9000 -423.28271484375 18800 15000 -530.9230346679688
          14000.06640625 14999.7431640625 -310.60748291015625 14000 21000 -277.9660339355469